
                                 *****************
                                 * O   R   C   A *
                                 *****************

                                            #,                                       
                                            ###                                      
                                            ####                                     
                                            #####                                    
                                            ######                                   
                                           ########,                                 
                                     ,,################,,,,,                         
                               ,,#################################,,                 
                          ,,##########################################,,             
                       ,#########################################, ''#####,          
                    ,#############################################,,   '####,        
                  ,##################################################,,,,####,       
                ,###########''''           ''''###############################       
              ,#####''   ,,,,##########,,,,          '''####'''          '####       
            ,##' ,,,,###########################,,,                        '##       
           ' ,,###''''                  '''############,,,                           
         ,,##''                                '''############,,,,        ,,,,,,###''
      ,#''                                            '''#######################'''  
     '                                                          ''''####''''         
             ,#######,   #######,   ,#######,      ##                                
            ,#'     '#,  ##    ##  ,#'     '#,    #''#        ,####,   ,####,        
            ##       ##  ##   ,#'  ##            #'  '#       #'       #'  '#        
            ##       ##  #######   ##           ,######,      #####,   #    #        
            '#,     ,#'  ##    ##  '#,     ,#' ,#      #,     #,   #   #,  ,#        
             '#######'   ##     ##  '#######'  #'      '#     '####' # '####'        



                #########################################################
                #                        -***-                          #
                #          Department of theory and spectroscopy        #
                #                                                       #
                #                      Frank Neese                      #
                #                                                       #
                #     Directorship, Architecture, Infrastructure        #
                #                    SHARK, DRIVERS                     #
                #        Core code/Algorithms in most modules           #
                #                                                       #
                #        Max Planck Institute fuer Kohlenforschung      #
                #                Kaiser Wilhelm Platz 1                 #
                #                 D-45470 Muelheim/Ruhr                 #
                #                      Germany                          #
                #                                                       #
                #                  All rights reserved                  #
                #                        -***-                          #
                #########################################################


                         Program Version 6.0.1  -  RELEASE   -


 With contributions from (in alphabetic order):
[Max-Planck-Institut fuer Kohlenforschung]                               
  Daniel Aravena         : Magnetic Suceptibility                        
  Michael Atanasov       : Ab Initio Ligand Field Theory (pilot matlab implementation)
  Alexander A. Auer      : GIAO ZORA, VPT2 properties, NMR spectrum      
  Ute Becker             : All parallelization in ORCA, NUMFREQ, NUMCALC 
  Giovanni Bistoni       : ED, misc. LED, open-shell LED, HFLD           
  Martin Brehm           : Molecular dynamics                            
  Dmytro Bykov           : pre 5.0 version of the SCF Hessian            
  Marcos Casanova-Páez   : Triplet and SCS-CIS(D). UHF-(DLPNO)-IP/EA/STEOM-CCSD. UHF-CVS-IP/STEOM-CCSD   
  Vijay G. Chilkuri      : MRCI spin determinant printing, contributions to CSF-ICE 
  Pauline Colinet        : FMM embedding                                 
  Dipayan Datta          : RHF DLPNO-CCSD density                        
  Achintya Kumar Dutta   : EOM-CC, STEOM-CC                              
  Nicolas Foglia         : Exact transition moments, OPA infrastructure, MCD improvements    
  Dmitry Ganyushin       : Spin-Orbit,Spin-Spin,Magnetic field MRCI      
  Miquel Garcia-Rates    : C-PCM and meta-GGA Hessian, CCSD/C-PCM, Gaussian charge scheme 
  Tiago L. C. Gouveia    : GS-ROHF, GS-ROCIS                             
  Yang Guo               : DLPNO-NEVPT2, F12-NEVPT2, CIM, IAO-localization        
  Andreas Hansen         : Spin unrestricted coupled pair/coupled cluster methods 
  Ingolf Harden          : AUTO-CI MPn and infrastructure                
  Benjamin Helmich-Paris : MC-RPA, TRAH-(SCF,CASSCF), AVAS, COSX integrals, SCF dyn. polar. 
  Lee Huntington         : MR-EOM, pCC                                   
  Robert Izsak           : Overlap fitted RIJCOSX, COSX-SCS-MP3, EOM     
  Riya Kayal             : Wick's Theorem for AUTO-CI, AUTO-CI UHF-CCSDT 
  Emily Kempfer          : AUTO-CI, RHF CISDT and CCSDT                  
  Christian Kollmar      : KDIIS, OOCD, Brueckner-CCSD(T), CCSD density, CASPT2, CASPT2-K, improved NEVPT2 
  Axel Koslowski         : Symmetry handling                             
  Simone Kossmann        : meta-GGA functionals, TD-DFT gradient, OOMP2, (MP2 Hessian; deprecated post 5.0) 
  Lucas Lang             : DCDCAS                                        
  Marvin Lechner         : AUTO-CI (C++ implementation), FIC-MRCC        
  Spencer Leger          : CASSCF response                               
  Dagmar Lenk            : GEPOL surface, SMD, ORCA-2-JSON               
  Dimitrios Liakos       : Extrapolation schemes; Compound Job, initial MDCI parallelization 
  Dimitrios Manganas     : Further ROCIS development; embedding schemes. LFT, Crystal Embedding 
  Dimitrios Pantazis     : SARC Basis sets                               
  Anastasios Papadopoulos: AUTO-CI, single reference methods and gradients 
  Taras Petrenko         : pre 6.0 DFT Hessian and TD-DFT gradient, (ASA, deprecated), ECA, 1-Electron XAS/XES, NRVS 
  Peter Pinski           : DLPNO-MP2, DLPNO-MP2 Gradient                 
  Christoph Reimann      : Effective Core Potentials                     
  Marius Retegan         : Local ZFS, SOC                                
  Christoph Riplinger    : Optimizer, TS searches, QM/MM, DLPNO-CCSD(T), (RO)-DLPNO pert. Triples 
  Michael Roemelt        : Original ROCIS implementation                 
  Masaaki Saitow         : Open-shell DLPNO-CCSD energy and density      
  Barbara Sandhoefer     : DKH picture change effects                    
  Kantharuban Sivalingam : CASSCF convergence/infrastructure, NEVPT2 and variants, FIC-MRCI 
  Bernardo de Souza      : ESD, SOC TD-DFT                               
  Georgi L. Stoychev     : AutoAux, RI-MP2 NMR, DLPNO-MP2 response, X2C  
  Van Anh Tran           : RI-MP2 g-tensors                              
  Willem Van den Heuvel  : Paramagnetic NMR                              
  Zikuan Wang            : NOTCH, Electric field optimization            
  Frank Wennmohs         : Technical directorship and infrastructure     
  Hang Xu                : AUTO-CI-Response properties                   
                                                                         
[FACCTs GmbH]                                                            
  Markus Bursch, Miquel Garcia-Rates, Christoph Riplinger, Bernardo de Souza, Georgi L. Stoychev 
                                                                 
  APM, Basis sets (HGBS, AHGBS, def-TZVP (Ac-Lr), def2-XVPD (La-Lu)), CI-OPT, improved COSX, DLPNO-Multilevel,           
  DOCKER, DRACO, updates on ESD, GOAT, IRC, LR-CPCM, MBIS, meta-GGA TD-DFT gradient, ML-optimized integration grids, 
  MM, NACMEs, nearIR, NEB, NEB-TS, NL-DFT gradient (VV10), 2- and 3-layer-ONIOM, interface openCOSMO-RS, QMMM,   
  Crystal-QMMM, SF, symmetry and pop. for TD-DFT, r2SCAN hybrids, SOLVATOR                                   
                                                                         
[Other institutions]                                                     
  V. Asgeirsson          : NEB                                           
  Christoph Bannwarth    : sTDA-DFT, sTD-DFT, PBEh-3c, B97-3c, D3        
  Sebastian Ehlert       : rSCAN, r2SCAN, r2SCAN-3c, D4, dhf basis sets  
  Marvin Friede          : D4 for Fr, Ra, Ac-Lr                          
  Lars Goerigk           : TD-DFT with DH, B97 family of functionals     
  Stefan Grimme          : VdW corrections, initial TS optimization, DFT functionals, gCP, sTDA/sTD-DF 
  Waldemar Hujo          : DFT-NL                                        
  H. Jonsson             : NEB                                           
  Holger Kruse           : gCP                                           
  Marcel Mueller         : wB97X-3c, vDZP basis set                      
  Hagen Neugebauer       : wr2SCAN                                       
  Tobias Risthaus        : range-separated hybrid DFT                    
  Lukas Wittmann         : regularized MP2, r2SCAN double-hybrids, wr2SCAN        
                                                                         
We gratefully acknowledge several colleagues who have allowed us to      
interface, adapt or use parts of their codes:                            
  Ed Valeev, F. Pavosevic, A. Kumar             : LibInt (2-el integral package), F12 methods 
  Garnet Chan, S. Sharma, J. Yang, R. Olivares  : DMRG                   
  Ulf Ekstrom                                   : XCFun DFT Library      
  Mihaly Kallay                                 : mrcc  (arbitrary order and MRCC methods)
  Frank Weinhold                                : gennbo (NPA and NBO analysis)           
  Simon Mueller                                 : openCOSMO-RS                            
  Christopher J. Cramer and Donald G. Truhlar   : smd solvation model                     
  S Lehtola, MJT Oliveira, MAL Marques          : LibXC Library                           
  Liviu Ungur et al                             : ANISO software                          


 Your calculation uses the libint2 library for the computation of 2-el integrals
 For citations please refer to: http://libint.valeyev.net

 Your ORCA version has been built with support for libXC version: 6.2.2
 For citations please refer to: https://libxc.gitlab.io

 This ORCA versions uses:
   CBLAS   interface :  Fast vector & matrix operations
   LAPACKE interface :  Fast linear algebra routines
   SCALAPACK package :  Parallel linear algebra routines
   Shared memory     :  Shared parallel matrices
   BLAS/LAPACK       :  OpenBLAS 0.3.27  USE64BITINT DYNAMIC_ARCH NO_AFFINITY SkylakeX SINGLE_THREADED
        Core in use  :  SkylakeX
   Copyright (c) 2011-2014, The OpenBLAS Project


================================================================================

----- Orbital basis set information -----
Your calculation utilizes the basis: STO-3G
   H-Ne       : W. J. Hehre, R. F. Stewart and J. A. Pople, J. Chem. Phys. 2657 (1969).
   Na-Ar      : W. J. Hehre, R. Ditchfield, R. F. Stewart and J. A. Pople, J. Chem. Phys. 2769 (1970).
   K,Ca,Ga-Kr : W. J. Pietro, B. A. Levy, W. J. Hehre and R. F. Stewart, J. Am. Chem. Soc. 19, 2225 (1980).
   Sc-Zn,Y-Cd : W. J. Pietro and W. J. Hehre, J. Comp. Chem. 4, 241 (1983).

================================================================================
                                        WARNINGS
                       Please study these warnings very carefully!
================================================================================

WARNING: Old DensityContainer found on disk!
         Will remove this file - 
         If you want to keep old densities, please start your calculation with a different basename. 


================================================================================
                                       INPUT FILE
================================================================================
NAME = H2O_CASSCF_1.inp
|  1> ! CASSCF STO-3G SP Slowconv
|  2> %pal
|  3>   nprocs 4
|  4> end
|  5> 
|  6> %casscf
|  7>   nel  4
|  8>   norb 4
|  9> end
| 10> 
| 11> %paras
| 12>   R = 0.50, 3.00, 16
| 13> end
| 14> 
| 15> * xyz 0 1
| 16> O   0.000000   0.000000   0.000000
| 17> H   0.000000   0.000000  {R}
| 18> H  -0.860362   0.209382   0.393570
| 19> **                         ****END OF INPUT****
================================================================================

                       ******************************
                       * Parameter Scan Calculation *
                       ******************************

Trajectory settings:
    -> SCF surface will be mapped

There are 1 parameter(s) to be scanned
             R: range=   0.50000000 ..   3.00000000  steps=   16
There will be   16 energy evaluations


         *************************************************************
                                TRAJECTORY STEP   1
                  R  :   0.50000000
         *************************************************************
---------------------------------
CARTESIAN COORDINATES (ANGSTROEM)
---------------------------------
  O      0.000000    0.000000    0.000000
  H      0.000000    0.000000    0.500000
  H     -0.860362    0.209382    0.393570

----------------------------
CARTESIAN COORDINATES (A.U.)
----------------------------
  NO LB      ZA    FRAG     MASS         X           Y           Z
   0 O     8.0000    0    15.999    0.000000    0.000000    0.000000
   1 H     1.0000    0     1.008    0.000000    0.000000    0.944863
   2 H     1.0000    0     1.008   -1.625849    0.395675    0.743740

--------------------------------
INTERNAL COORDINATES (ANGSTROEM)
--------------------------------
 O      0   0   0     0.000000000000     0.00000000     0.00000000
 H      1   0   0     0.500000000000     0.00000000     0.00000000
 H      2   1   0     0.891846925132    83.14618125     0.00000000

---------------------------
INTERNAL COORDINATES (A.U.)
---------------------------
 O      0   0   0     0.000000000000     0.00000000     0.00000000
 H      1   0   0     0.944863066961     0.00000000     0.00000000
 H      2   1   0     1.685346441880    83.14618125     0.00000000

---------------------
BASIS SET INFORMATION
---------------------
There are 2 groups of distinct atoms

 Group   1 Type O   : 6s3p contracted to 2s1p pattern {33/3}
 Group   2 Type H   : 3s contracted to 1s pattern {3}

Atom   0O    basis set group =>   1
Atom   1H    basis set group =>   2
Atom   2H    basis set group =>   2

Checking for AutoStart:
The File: H2O_CASSCF_1.gbw exists
Trying to determine its content:
     ... Fine, the file contains calculation information
     ... Fine, the calculation information was read
     ... Fine, the file contains a basis set
     ... Fine, the basis set was read
     ... Fine, the file contains a geometry
     ... Fine, the geometry was read
     ... Fine, the file contains a set of orbitals
     ... Fine, the orbitals can be read
     => possible old guess file was deleted
     => GBW file was renamed to GES file
     => GES file is set as startup file
     => Guess is set to MORead
     ... now leaving AutoStart



           ************************************************************
           *        Program running with 4 parallel MPI-processes     *
           *              working on a common directory               *
           ************************************************************
------------------------------------------------------------------------------
                             ORCA STARTUP CALCULATIONS
------------------------------------------------------------------------------
------------------------------------------------------------------------------
                   ___                                                        
                  /   \      - P O W E R E D   B Y -                         
                 /     \                                                     
                 |  |  |   _    _      __       _____    __    __             
                 |  |  |  | |  | |    /  \     |  _  \  |  |  /  |          
                  \  \/   | |  | |   /    \    | | | |  |  | /  /          
                 / \  \   | |__| |  /  /\  \   | |_| |  |  |/  /          
                |  |  |   |  __  | /  /__\  \  |    /   |      \           
                |  |  |   | |  | | |   __   |  |    \   |  |\   \          
                \     /   | |  | | |  |  |  |  | |\  \  |  | \   \       
                 \___/    |_|  |_| |__|  |__|  |_| \__\ |__|  \__/        
                                                                              
                      - O R C A' S   B I G   F R I E N D -                    
                                      &                                       
                       - I N T E G R A L  F E E D E R -                       
                                                                              
 v1 FN, 2020, v2 2021, v3 2022-2024                                           
------------------------------------------------------------------------------


----------------------
SHARK INTEGRAL PACKAGE
----------------------

Number of atoms                             ...      3
Number of basis functions                   ...      7
Number of shells                            ...      5
Maximum angular momentum                    ...      1
Integral batch strategy                     ... SHARK/LIBINT Hybrid
RI-J (if used) integral strategy            ... SPLIT-RIJ (Revised 2003 algorithm where possible)
Printlevel                                  ...      1
Contraction scheme used                     ... SEGMENTED contraction
Prescreening option                         ... SCHWARTZ
   Thresh                                   ... 1.000e-10
   Tcut                                     ... 1.000e-11
   Tpresel                                  ... 1.000e-11 
Coulomb Range Separation                    ... NOT USED
Exchange Range Separation                   ... NOT USED
Multipole approximations                    ... NOT USED
Finite Nucleus Model                        ... NOT USED
CABS basis                                  ... NOT available
Auxiliary Coulomb fitting basis             ... NOT available
Auxiliary J/K fitting basis                 ... NOT available
Auxiliary Correlation fitting basis         ... NOT available
Auxiliary 'external' fitting basis          ... NOT available

Checking pre-screening integrals            ... done (  0.0 sec) Dimension = 5
Check shell pair data                       ... done (  0.0 sec)
Shell pair information
Shell pair cut-off parameter TPreSel        ...   1.0e-11
Total number of shell pairs                 ...        15
Shell pairs after pre-screening             ...        15
Total number of primitive shell pairs       ...       135
Primitive shell pairs kept                  ...       135
          la=0 lb=0:     10 shell pairs
          la=1 lb=0:      4 shell pairs
          la=1 lb=1:      1 shell pairs

Calculating one electron integrals          ... done (  0.0 sec)
Calculating Nuclear repulsion               ... done (  0.0 sec) ENN=     13.429037373550 Eh

Diagonalization of the overlap matrix:
Smallest eigenvalue                        ... 8.174e-02
Time for diagonalization                   ...    0.000 sec
Threshold for overlap eigenvalues          ... 1.000e-07
Number of eigenvalues below threshold      ... 0
Time for construction of square roots      ...    0.008 sec
Total time needed                          ...    0.008 sec

-------------------
DFT GRID GENERATION
-------------------

General Integration Accuracy     IntAcc      ... 4.388
Radial Grid Type                 RadialGrid  ... OptM3 with GC (2021)
Angular Grid (max. ang.)         AngularGrid ... 4 (Lebedev-302)
Angular grid pruning method      GridPruning ... 4 (adaptive)
Weight generation scheme         WeightScheme... mBecke (2022)
Basis function cutoff            BFCut       ... 1.0000e-10
Integration weight cutoff        WCut        ... 1.0000e-14
Partially contracted basis set               ... off
Rotationally invariant grid construction     ... off
Angular grids for H and He will be reduced by one unit

Total number of grid points                  ...    12727
Total number of batches                      ...      200
Average number of points per batch           ...       63
Average number of grid points per atom       ...     4242
Initializing property integral containers    ... done (  0.0 sec)

SHARK setup successfully completed in   0.1 seconds

Maximum memory used throughout the entire STARTUP-calculation: 3.9 MB


           ************************************************************
           *        Program running with 4 parallel MPI-processes     *
           *              working on a common directory               *
           ************************************************************
-------------------------------------------------------------------------------
                                 ORCA GUESS
                   Start orbitals & Density for SCF / CASSCF
-------------------------------------------------------------------------------

------------
SCF SETTINGS
------------
Hamiltonian:
 Ab initio Hamiltonian  Method          .... Hartree-Fock(GTOs)


General Settings:
 Integral files         IntName         .... H2O_CASSCF_1
 Hartree-Fock type      HFTyp           .... CASSCF
 Total Charge           Charge          ....    0
 Multiplicity           Mult            ....    1
 Number of Electrons    NEL             ....   10
 Basis Dimension        Dim             ....    7
 Nuclear Repulsion      ENuc            ....     13.4290373736 Eh

---------------------
INITIAL GUESS: MOREAD
---------------------
Guess MOs are being read from file: H2O_CASSCF_1.ges
Input Geometry matches current geometry (good)
Input basis set matches current basis set (good)
Occupation numbers will be reassigned to an Aufbau configuration
MOs were renormalized
Gram-Schmidt orthogonalization of all MOs with pivot on actives
                      ------------------
                      INITIAL GUESS DONE (   0.0 sec)
                      ------------------
================================================================================
                                        WARNING
Check your MOs and check whether a frozen core calculation is appropriate
MO 0 should be a O  s semi-core orbital but seems to be delocalized with a O  p orbital (78.4% vs. 32.3%)
================================================================================
================================================================================
                                        WARNING
Check your MOs and check whether a frozen core calculation is appropriate
MO 0 should be a O  s semi-core orbital but seems to be delocalized with a O  p orbital (78.4% vs. 32.3%)
================================================================================
             **** ENERGY FILE WAS UPDATED (H2O_CASSCF_1.en.tmp) ****
Finished Guess after   0.2 sec
Maximum memory used throughout the entire GUESS-calculation: 2.0 MB


           ************************************************************
           *        Program running with 4 parallel MPI-processes     *
           *              working on a common directory               *
           ************************************************************
-------------------------------------------------------------------------------
                              ORCA-CASSCF
-------------------------------------------------------------------------------

Building the CAS space              ... done (19 configurations for Mult=1)

SYSTEM-SPECIFIC SETTINGS:
Number of active electrons          ...    4
Number of active orbitals           ...    4
Total number of electrons           ...   10
Total number of orbitals            ...    7

Determined orbital ranges:
   Internal       0 -    2 (   3 orbitals)
   Active         3 -    6 (   4 orbitals)
   External       7 -    6 (   0 orbitals)
Number of rotation parameters      ...     12

CI-STEP:
CI strategy                         ... General CI
Number of multiplicity blocks       ...    1
BLOCK  0 WEIGHT=   1.0000
  Multiplicity                      ...    1
  #(Configurations)                 ...   19
  #(CSFs)                           ...   20
  #(Roots)                          ...    1
    ROOT=0 WEIGHT=    1.000000

  PrintLevel                        ...    1
  N(GuessMat)                       ...      2048
  MaxDim(CI)                        ...        10
  MaxIter(CI)                       ...        64
  Energy Tolerance CI               ...  1.00e-08
  Residual Tolerance CI             ...  1.00e-08
  Shift(CI)                         ...  1.00e-04

INTEGRAL-TRANSFORMATION-STEP:
  Algorithm                         ... EXACT

ORBITAL-IMPROVEMENT-STEP:
  Algorithm                         ... SuperCI
  Default Parametrization           ... CAYLEY
  Act-Act rotations                 ... depends on algorithm used
  FreezeIE                          ... 95.00% of ||g||
  Until reaching FreezeIE rotations with active orbitals are damped. 

  Approx. Fock at                   ... 1.000000e-05 density convergence
  Level shift                       ... energy gap dependent. Minimum=1.000
  Switch step at gradient           ...  3.00e-02 
  Switch step at iteration          ...        50   
  Switch step to                    ... DIIS    

SCF-SETTINGS:
  Incremental                       ... on
  RIJCOSX approximation             ... off
  RI-JK approximation               ... off
  AO integral handling              ... DIRECT
  Integral Neglect Thresh           ...  1.00e-10
  Primitive cutoff TCut             ...  1.00e-11
  Energy convergence tolerance      ...  1.00e-07
  Orbital gradient convergence      ...  1.00e-03
  Max. number of iterations         ...       120  


FINAL ORBITALS:
  Active   Orbitals                 ... natural 
  Internal Orbitals                 ... canonical 
  External Orbitals                 ... canonical 

------------------
CAS-SCF ITERATIONS
------------------


MACRO-ITERATION   1: 
   --- Canonicalize Internal Space
   --- Canonicalize External Space
   --- Inactive Energy E0 = -55.37132286 Eh
CI-ITERATION   0: 
   -72.744338020   0.000000000000 (    0.00)
   CI-PROBLEM SOLVED
   DENSITIES MADE

                 <<<<<<<<<<<<<<<<<<INITIAL CI STATE CHECK>>>>>>>>>>>>>>>>>>

BLOCK  0 MULT= 1 NROOTS= 1 
ROOT   0:  E=     -72.7443380203 Eh
      0.40595 [     3]: 2020
      0.25740 [     4]: 2011
      0.11078 [    11]: 1021
      0.07803 [     1]: 2110
      0.03757 [     9]: 1111
      0.03052 [     5]: 2002
      0.02563 [     2]: 2101
      0.02502 [    12]: 1012
      0.00911 [     8]: 1120
      0.00544 [    10]: 1102
      0.00425 [    18]: 0022
      0.00257 [     7]: 1201
      0.00256 [     6]: 1210

                 <<<<<<<<<<<<<<<<<<INITIAL CI STATE CHECK>>>>>>>>>>>>>>>>>>

   E(CAS)=   -72.744338020 Eh DE=    0.000000e+00
   --- Energy gap subspaces: Ext-Act = 1.000   Act-Int = -3.027
   --- current l-shift: Up(Ext-Act) = 1.00   Dn(Act-Int) = 5.03
   N(occ)=  1.79169 0.17337 1.46513 0.56981
   ||g|| =     2.467585e+00 Max(G)=   -1.505398e+00 Rot=4,0
   --- Orbital Update [   SuperCI]
   --- Perturbative SuperCI
   SUPERCI-ITER   0: DE=    -0.030722813 <r|r>=      0.001043411
   <Psi(SX)|Psi(SX)>=      1.004675703 DE(SX)=-0.030722813
   Largest coefficient in the normalized |SX> wavefunction= 0.027571397
   --- Density off from convergence (8.844e-03). Exact active Fock build

MACRO-ITERATION   2: 
   --- Canonicalize Internal Space
   --- Canonicalize External Space
   --- Inactive Energy E0 = -55.42098812 Eh
CI-ITERATION   0: 
   -72.852779132   0.000000000000 (    0.00)
   CI-PROBLEM SOLVED
   DENSITIES MADE
   E(CAS)=   -72.852779132 Eh DE=   -1.084411e-01
   --- Energy gap subspaces: Ext-Act = 1.000   Act-Int = -4.625
   --- current l-shift: Up(Ext-Act) = 0.50   Dn(Act-Int) = 6.12
   N(occ)=  1.99221 1.99549 0.00643 0.00586
   ||g|| =     2.049385e+00 Max(G)=    1.578228e+00 Rot=6,0
   --- Orbital Update [   SuperCI]
   --- Perturbative SuperCI
   SUPERCI-ITER   0: DE=    -0.083881799 <r|r>=      0.015352192
   <Psi(SX)|Psi(SX)>=      1.014607919 DE(SX)=-0.083881799
   Largest coefficient in the normalized |SX> wavefunction= 0.632155737
   --- Density off from convergence (5.609e-01). Exact active Fock build

MACRO-ITERATION   3: 
   --- Canonicalize Internal Space
   --- Canonicalize External Space
   --- Inactive Energy E0 = -57.78357191 Eh
CI-ITERATION   0: 
   -73.332784462   0.000000000000 (    0.00)
   CI-PROBLEM SOLVED
   DENSITIES MADE
   E(CAS)=   -73.332784462 Eh DE=   -4.800053e-01
   --- Energy gap subspaces: Ext-Act = 1.000   Act-Int = -3.425
   --- current l-shift: Up(Ext-Act) = 0.33   Dn(Act-Int) = 4.76
   N(occ)=  1.99308 1.98949 0.01187 0.00556
   ||g|| =     2.823402e+00 Max(G)=   -2.177535e+00 Rot=5,0
   --- Orbital Update [   SuperCI]
   --- Perturbative SuperCI
   SUPERCI-ITER   0: DE=    -0.060257823 <r|r>=      0.001117682
   <Psi(SX)|Psi(SX)>=      1.011200092 DE(SX)=-0.060257823
   Largest coefficient in the normalized |SX> wavefunction= 0.106719536
   --- Density off from convergence (5.274e-01). Exact active Fock build

MACRO-ITERATION   4: 
   --- Canonicalize Internal Space
   --- Canonicalize External Space
   --- Inactive Energy E0 = -59.17015959 Eh
CI-ITERATION   0: 
   -73.521728862   0.000000000000 (    0.00)
   CI-PROBLEM SOLVED
   DENSITIES MADE
   E(CAS)=   -73.521728862 Eh DE=   -1.889444e-01
   --- Energy gap subspaces: Ext-Act = 1.000   Act-Int = -3.214
   --- current l-shift: Up(Ext-Act) = 0.00   Dn(Act-Int) = 4.21
   N(occ)=  1.98758 1.99642 0.01323 0.00276
   ||g|| =     2.844792e+00 Max(G)=   -2.669891e+00 Rot=5,0
   --- Orbital Update [   SuperCI]
   --- Perturbative SuperCI
   SUPERCI-ITER   0: DE=    -0.049510579 <r|r>=      0.001304441
   <Psi(SX)|Psi(SX)>=      1.009594280 DE(SX)=-0.049510579
   Largest coefficient in the normalized |SX> wavefunction= 0.142382474
   --- Density off from convergence (5.141e-03). Exact active Fock build

MACRO-ITERATION   5: 
   --- Canonicalize Internal Space
   --- Canonicalize External Space
   --- Inactive Energy E0 = -60.32347990 Eh
CI-ITERATION   0: 
   -73.693349738   0.000000000000 (    0.00)
   CI-PROBLEM SOLVED
   DENSITIES MADE
   E(CAS)=   -73.693349738 Eh DE=   -1.716209e-01
   --- Energy gap subspaces: Ext-Act = 1.000   Act-Int = -2.724
   --- current l-shift: Up(Ext-Act) = 0.00   Dn(Act-Int) = 3.72
   N(occ)=  1.98748 1.99646 0.01341 0.00265
   ||g|| =     2.650215e+00 Max(G)=   -2.587138e+00 Rot=5,0
   --- Orbital Update [   SuperCI]
   --- Perturbative SuperCI
   SUPERCI-ITER   0: DE=    -0.035926434 <r|r>=      0.000711543
   <Psi(SX)|Psi(SX)>=      1.005276618 DE(SX)=-0.035926434
   Largest coefficient in the normalized |SX> wavefunction= 0.085230323
   --- Density off from convergence (2.828e-02). Exact active Fock build

MACRO-ITERATION   6: 
   --- Canonicalize Internal Space
   --- Canonicalize External Space
   --- Inactive Energy E0 = -61.20226513 Eh
CI-ITERATION   0: 
   -73.800693793   0.000000000000 (    0.00)
   CI-PROBLEM SOLVED
   DENSITIES MADE
   E(CAS)=   -73.800693793 Eh DE=   -1.073441e-01
   --- Energy gap subspaces: Ext-Act = 1.000   Act-Int = -2.334
   --- current l-shift: Up(Ext-Act) = 0.00   Dn(Act-Int) = 3.33
   N(occ)=  1.98979 1.99639 0.01120 0.00262
   ||g|| =     2.265113e+00 Max(G)=   -2.206836e+00 Rot=5,0
   --- Orbital Update [   SuperCI]
   --- Perturbative SuperCI
   SUPERCI-ITER   0: DE=    -0.024429232 <r|r>=      0.000119800
   <Psi(SX)|Psi(SX)>=      1.002990024 DE(SX)=-0.024429232
   Largest coefficient in the normalized |SX> wavefunction= 0.059203777
   --- Density off from convergence (8.270e-03). Exact active Fock build

MACRO-ITERATION   7: 
   --- Canonicalize Internal Space
   --- Canonicalize External Space
   --- Inactive Energy E0 = -61.87394957 Eh
CI-ITERATION   0: 
   -73.867529884   0.000000000000 (    0.00)
   CI-PROBLEM SOLVED
   DENSITIES MADE
   E(CAS)=   -73.867529884 Eh DE=   -6.683609e-02
   --- Energy gap subspaces: Ext-Act = 1.000   Act-Int = -2.028
   --- current l-shift: Up(Ext-Act) = 0.00   Dn(Act-Int) = 3.03
   N(occ)=  1.99270 1.99613 0.00860 0.00257
   ||g|| =     1.814838e+00 Max(G)=   -1.714856e+00 Rot=5,0
   --- Orbital Update [   SuperCI]
   --- Perturbative SuperCI
   SUPERCI-ITER   0: DE=    -0.015868650 <r|r>=      0.000005599
   <Psi(SX)|Psi(SX)>=      1.001704028 DE(SX)=-0.015868650
   Largest coefficient in the normalized |SX> wavefunction= 0.040250789
   --- Density off from convergence (4.009e-03). Exact active Fock build

MACRO-ITERATION   8: 
   --- Canonicalize Internal Space
   --- Canonicalize External Space
   --- Inactive Energy E0 = -62.39085416 Eh
CI-ITERATION   0: 
   -73.905536241   0.000000000000 (    0.00)
   CI-PROBLEM SOLVED
   DENSITIES MADE
   E(CAS)=   -73.905536241 Eh DE=   -3.800636e-02
   --- Energy gap subspaces: Ext-Act = 1.000   Act-Int = -1.786
   --- current l-shift: Up(Ext-Act) = 0.00   Dn(Act-Int) = 2.79
   N(occ)=  1.99506 1.99570 0.00673 0.00251
   ||g|| =     1.381012e+00 Max(G)=    1.250447e+00 Rot=5,0
   --- Orbital Update [   SuperCI]
   --- Perturbative SuperCI
   SUPERCI-ITER   0: DE=    -0.010168717 <r|r>=      0.000021843
   <Psi(SX)|Psi(SX)>=      1.000902163 DE(SX)=-0.010168717
   Largest coefficient in the normalized |SX> wavefunction= 0.023466261
   --- Density off from convergence (1.960e-03). Exact active Fock build

MACRO-ITERATION   9: 
   --- Canonicalize Internal Space
   --- Canonicalize External Space
   --- Inactive Energy E0 = -62.79528763 Eh
CI-ITERATION   0: 
   -73.925386349   0.000000000000 (    0.00)
   CI-PROBLEM SOLVED
   DENSITIES MADE
   E(CAS)=   -73.925386349 Eh DE=   -1.985011e-02
   --- Energy gap subspaces: Ext-Act = 1.000   Act-Int = -1.587
   --- current l-shift: Up(Ext-Act) = 0.00   Dn(Act-Int) = 2.59
   N(occ)=  1.99654 1.99522 0.00584 0.00241
   ||g|| =     1.011265e+00 Max(G)=   -9.124235e-01 Rot=5,0
   --- Orbital Update [   SuperCI]
   --- Perturbative SuperCI
   SUPERCI-ITER   0: DE=    -0.006808682 <r|r>=      0.000012591
   <Psi(SX)|Psi(SX)>=      1.000449636 DE(SX)=-0.006808682
   Largest coefficient in the normalized |SX> wavefunction= 0.014407029
   --- Density off from convergence (3.376e-04). Exact active Fock build

MACRO-ITERATION  10: 
   --- Canonicalize Internal Space
   --- Canonicalize External Space
   --- Inactive Energy E0 = -63.12004181 Eh
CI-ITERATION   0: 
   -73.935639847   0.000000000000 (    0.00)
   CI-PROBLEM SOLVED
   DENSITIES MADE
   E(CAS)=   -73.935639847 Eh DE=   -1.025350e-02
   --- Energy gap subspaces: Ext-Act = 1.000   Act-Int = -1.421
   --- current l-shift: Up(Ext-Act) = 0.00   Dn(Act-Int) = 2.42
   N(occ)=  1.99723 1.99475 0.00565 0.00236
   ||g|| =     7.172789e-01 Max(G)=   -6.753656e-01 Rot=5,0
   --- Orbital Update [   SuperCI]
   --- Perturbative SuperCI
   SUPERCI-ITER   0: DE=    -0.004944029 <r|r>=      0.000003434
   <Psi(SX)|Psi(SX)>=      1.000213884 DE(SX)=-0.004944029
   Largest coefficient in the normalized |SX> wavefunction= 0.016234856
   --- Density off from convergence (3.797e-04). Exact active Fock build

MACRO-ITERATION  11: 
   --- Canonicalize Internal Space
   --- Canonicalize External Space
   --- Inactive Energy E0 = -63.38945636 Eh
CI-ITERATION   0: 
   -73.941037830   0.000000000000 (    0.00)
   CI-PROBLEM SOLVED
   DENSITIES MADE
   E(CAS)=   -73.941037830 Eh DE=   -5.397983e-03
   --- Energy gap subspaces: Ext-Act = 1.000   Act-Int = -1.291
   --- current l-shift: Up(Ext-Act) = 0.00   Dn(Act-Int) = 2.29
   N(occ)=  1.99747 1.99426 0.00585 0.00242
   ||g|| =     4.946734e-01 Max(G)=   -4.804410e-01 Rot=5,0
   --- Orbital Update [   SuperCI]
   --- Perturbative SuperCI
   SUPERCI-ITER   0: DE=    -0.003950404 <r|r>=      0.000000582
   <Psi(SX)|Psi(SX)>=      1.000104692 DE(SX)=-0.003950404
   Largest coefficient in the normalized |SX> wavefunction= 0.016628491
   --- Density off from convergence (5.399e-04). Exact active Fock build

MACRO-ITERATION  12: 
   --- Canonicalize Internal Space
   --- Canonicalize External Space
   --- Inactive Energy E0 = -63.62348079 Eh
CI-ITERATION   0: 
   -73.944009404   0.000000000000 (    0.00)
   CI-PROBLEM SOLVED
   DENSITIES MADE
   E(CAS)=   -73.944009404 Eh DE=   -2.971574e-03
   --- Energy gap subspaces: Ext-Act = 1.000   Act-Int = -1.192
   --- current l-shift: Up(Ext-Act) = 0.00   Dn(Act-Int) = 2.19
   N(occ)=  1.99750 1.99368 0.00631 0.00251
   ||g|| =     3.341563e-01 Max(G)=   -3.266245e-01 Rot=5,0
   --- Orbital Update [   SuperCI]
   --- Perturbative SuperCI
   SUPERCI-ITER   0: DE=    -0.003431915 <r|r>=      0.000000072
   <Psi(SX)|Psi(SX)>=      1.000058973 DE(SX)=-0.003431915
   Largest coefficient in the normalized |SX> wavefunction= 0.016019076
   --- Density off from convergence (6.532e-04). Exact active Fock build

MACRO-ITERATION  13: 
   --- Canonicalize Internal Space
   --- Canonicalize External Space
   --- Inactive Energy E0 = -63.83586690 Eh
CI-ITERATION   0: 
   -73.945828150   0.000000000000 (    0.00)
   CI-PROBLEM SOLVED
   DENSITIES MADE
   E(CAS)=   -73.945828150 Eh DE=   -1.818746e-03
   --- Energy gap subspaces: Ext-Act = 1.000   Act-Int = -1.119
   --- current l-shift: Up(Ext-Act) = 0.00   Dn(Act-Int) = 2.12
   N(occ)=  1.99744 1.99300 0.00696 0.00260
   ||g|| =     2.239252e-01 Max(G)=   -2.144552e-01 Rot=5,0
   --- Orbital Update [   SuperCI]
   --- Perturbative SuperCI
   SUPERCI-ITER   0: DE=    -0.003149818 <r|r>=      0.000000027
   Warning: Orthogonalization failed (1e-14)! Terminating Iterations.
   <Psi(SX)|Psi(SX)>=      1.000039199 DE(SX)=-0.003149818
   Largest coefficient in the normalized |SX> wavefunction= 0.015457484
   --- Density off from convergence (7.400e-04). Exact active Fock build

MACRO-ITERATION  14: 
   --- Canonicalize Internal Space
   --- Canonicalize External Space
   --- Inactive Energy E0 = -64.03382705 Eh
CI-ITERATION   0: 
   -73.947135403   0.000000000000 (    0.00)
   CI-PROBLEM SOLVED
   DENSITIES MADE
   E(CAS)=   -73.947135403 Eh DE=   -1.307253e-03
   --- Energy gap subspaces: Ext-Act = 1.000   Act-Int = -1.062
   --- current l-shift: Up(Ext-Act) = 0.00   Dn(Act-Int) = 2.06
   N(occ)=  1.99736 1.99223 0.00773 0.00268
   ||g|| =     1.526296e-01 Max(G)=   -1.371465e-01 Rot=5,0
   --- Orbital Update [   SuperCI]
   --- Perturbative SuperCI
   SUPERCI-ITER   0: DE=    -0.002973913 <r|r>=      0.000000029
   <Psi(SX)|Psi(SX)>=      1.000029236 DE(SX)=-0.002973913
   Largest coefficient in the normalized |SX> wavefunction= 0.015506157
   --- Density off from convergence (8.183e-04). Exact active Fock build

MACRO-ITERATION  15: 
   --- Canonicalize Internal Space
   --- Canonicalize External Space
   --- Inactive Energy E0 = -64.22029709 Eh
CI-ITERATION   0: 
   -73.948234255   0.000000000000 (    0.00)
   CI-PROBLEM SOLVED
   DENSITIES MADE
   E(CAS)=   -73.948234255 Eh DE=   -1.098852e-03
   --- Energy gap subspaces: Ext-Act = 1.000   Act-Int = -1.018
   --- current l-shift: Up(Ext-Act) = 0.00   Dn(Act-Int) = 2.02
   N(occ)=  1.99727 1.99136 0.00861 0.00276
   ||g|| =     1.108348e-01 Max(G)=   -8.604381e-02 Rot=5,0
   --- Orbital Update [   SuperCI]
   --- Perturbative SuperCI
   SUPERCI-ITER   0: DE=    -0.002839717 <r|r>=      0.000000026
   <Psi(SX)|Psi(SX)>=      1.000023146 DE(SX)=-0.002839717
   Largest coefficient in the normalized |SX> wavefunction= 0.015242966
   --- Density off from convergence (8.950e-04). Exact active Fock build

MACRO-ITERATION  16: 
   --- Canonicalize Internal Space
   --- Canonicalize External Space
   --- Inactive Energy E0 = -64.39615760 Eh
CI-ITERATION   0: 
   -73.949258119   0.000000000000 (    0.00)
   CI-PROBLEM SOLVED
   DENSITIES MADE
   E(CAS)=   -73.949258119 Eh DE=   -1.023864e-03
   --- Energy gap subspaces: Ext-Act = 1.000   Act-Int = -0.982
   --- current l-shift: Up(Ext-Act) = 0.00   Dn(Act-Int) = 1.98
   N(occ)=  1.99718 1.99041 0.00957 0.00284
   ||g|| =     9.024739e-02 Max(G)=    6.848327e-02 Rot=4,0
   --- Orbital Update [   SuperCI]
   --- Perturbative SuperCI
   SUPERCI-ITER   0: DE=    -0.002717767 <r|r>=      0.000000019
   <Psi(SX)|Psi(SX)>=      1.000018835 DE(SX)=-0.002717767
   Largest coefficient in the normalized |SX> wavefunction= 0.014783483
   --- Density off from convergence (9.720e-04). Exact active Fock build

MACRO-ITERATION  17: 
   --- Canonicalize Internal Space
   --- Canonicalize External Space
   --- Inactive Energy E0 = -64.56150477 Eh
CI-ITERATION   0: 
   -73.950260208   0.000000000000 (    0.00)
   CI-PROBLEM SOLVED
   DENSITIES MADE
   E(CAS)=   -73.950260208 Eh DE=   -1.002088e-03
   --- Energy gap subspaces: Ext-Act = 1.000   Act-Int = -0.953
   --- current l-shift: Up(Ext-Act) = 0.00   Dn(Act-Int) = 1.95
   N(occ)=  1.99710 1.98937 0.01062 0.00291
   ||g|| =     8.271566e-02 Max(G)=   -7.252657e-02 Rot=4,0
   --- Orbital Update [   SuperCI]
   --- Perturbative SuperCI
   SUPERCI-ITER   0: DE=    -0.002595515 <r|r>=      0.000000013
   <Psi(SX)|Psi(SX)>=      1.000015529 DE(SX)=-0.002595515
   Largest coefficient in the normalized |SX> wavefunction= 0.014200966
   --- Density off from convergence (1.049e-03). Exact active Fock build

MACRO-ITERATION  18: 
   --- Canonicalize Internal Space
   --- Canonicalize External Space
   --- Inactive Energy E0 = -64.71622170 Eh
CI-ITERATION   0: 
   -73.951257638   0.000000000000 (    0.00)
   CI-PROBLEM SOLVED
   DENSITIES MADE
   E(CAS)=   -73.951257638 Eh DE=   -9.974306e-04
   --- Energy gap subspaces: Ext-Act = 1.000   Act-Int = -0.929
   --- current l-shift: Up(Ext-Act) = 0.00   Dn(Act-Int) = 1.93
   N(occ)=  1.99702 1.98826 0.01174 0.00299
   ||g|| =     8.150790e-02 Max(G)=    7.615898e-02 Rot=4,0
   --- Orbital Update [   SuperCI]
   --- Perturbative SuperCI
   SUPERCI-ITER   0: DE=    -0.002468103 <r|r>=      0.000000008
   <Psi(SX)|Psi(SX)>=      1.000012893 DE(SX)=-0.002468103
   Largest coefficient in the normalized |SX> wavefunction= 0.013542127
   --- Density off from convergence (1.123e-03). Exact active Fock build

MACRO-ITERATION  19: 
   --- Canonicalize Internal Space
   --- Canonicalize External Space
   --- Inactive Energy E0 = -64.86020102 Eh
CI-ITERATION   0: 
   -73.952251867   0.000000000000 (    0.00)
   CI-PROBLEM SOLVED
   DENSITIES MADE
   E(CAS)=   -73.952251867 Eh DE=   -9.942284e-04
   --- Energy gap subspaces: Ext-Act = 1.000   Act-Int = -0.908
   --- current l-shift: Up(Ext-Act) = 0.00   Dn(Act-Int) = 1.91
   N(occ)=  1.99695 1.98707 0.01293 0.00306
   ||g|| =     8.265787e-02 Max(G)=   -7.930555e-02 Rot=4,0
   --- Orbital Update [   SuperCI]
   --- Perturbative SuperCI
   SUPERCI-ITER   0: DE=    -0.002334066 <r|r>=      0.000000005
   <Psi(SX)|Psi(SX)>=      1.000010746 DE(SX)=-0.002334066
   Largest coefficient in the normalized |SX> wavefunction= 0.012838478
   --- Density off from convergence (1.191e-03). Exact active Fock build

MACRO-ITERATION  20: 
   --- Canonicalize Internal Space
   --- Canonicalize External Space
   --- Inactive Energy E0 = -64.99342097 Eh
CI-ITERATION   0: 
   -73.953237697   0.000000000000 (    0.00)
   CI-PROBLEM SOLVED
   DENSITIES MADE
   E(CAS)=   -73.953237697 Eh DE=   -9.858308e-04
   --- Energy gap subspaces: Ext-Act = 1.000   Act-Int = -0.890
   --- current l-shift: Up(Ext-Act) = 0.00   Dn(Act-Int) = 1.89
   N(occ)=  1.99688 1.98582 0.01418 0.00312
   ||g|| =     8.435371e-02 Max(G)=    8.189233e-02 Rot=4,0
   --- Orbital Update [   SuperCI]
   SUPERCI-ITER   0: DE=    -0.002193496 <r|r>=      0.000000003
   <Psi(SX)|Psi(SX)>=      1.000008974 DE(SX)=-0.002193496
   Largest coefficient in the normalized |SX> wavefunction= 0.012112748
   --- Density off from convergence (1.250e-03). Exact active Fock build

MACRO-ITERATION  21: 
   --- Canonicalize Internal Space
   --- Canonicalize External Space
   --- Inactive Energy E0 = -65.11596657 Eh
CI-ITERATION   0: 
   -73.954207167   0.000000000000 (    0.00)
   CI-PROBLEM SOLVED
   DENSITIES MADE
   E(CAS)=   -73.954207167 Eh DE=   -9.694697e-04
   --- Energy gap subspaces: Ext-Act = 1.000   Act-Int = -0.875
   --- current l-shift: Up(Ext-Act) = 0.00   Dn(Act-Int) = 1.87
   N(occ)=  1.99681 1.98453 0.01548 0.00319
   ||g|| =     8.584977e-02 Max(G)=   -8.384886e-02 Rot=4,0
   --- Orbital Update [   SuperCI]
   SUPERCI-ITER   0: DE=    -0.002047292 <r|r>=      0.000000002
   <Psi(SX)|Psi(SX)>=      1.000007497 DE(SX)=-0.002047292
   Largest coefficient in the normalized |SX> wavefunction= 0.011382153
   --- Density off from convergence (1.297e-03). Exact active Fock build

MACRO-ITERATION  22: 
   --- Canonicalize Internal Space
   --- Canonicalize External Space
   --- Inactive Energy E0 = -65.22803210 Eh
CI-ITERATION   0: 
   -73.955151293   0.000000000000 (    0.00)
   CI-PROBLEM SOLVED
   DENSITIES MADE
   E(CAS)=   -73.955151293 Eh DE=   -9.441258e-04
   --- Energy gap subspaces: Ext-Act = 1.000   Act-Int = -0.862
   --- current l-shift: Up(Ext-Act) = 0.00   Dn(Act-Int) = 1.86
   N(occ)=  1.99675 1.98320 0.01680 0.00325
   ||g|| =     8.683424e-02 Max(G)=    8.511460e-02 Rot=4,0
   --- Orbital Update [   SuperCI]
   SUPERCI-ITER   0: DE=    -0.001896878 <r|r>=      0.000000001
   <Psi(SX)|Psi(SX)>=      1.000006256 DE(SX)=-0.001896878
   Largest coefficient in the normalized |SX> wavefunction= 0.010660010
   --- Density off from convergence (1.328e-03). Exact active Fock build

MACRO-ITERATION  23: 
   --- Canonicalize Internal Space
   --- Canonicalize External Space
   --- Inactive Energy E0 = -65.32991717 Eh
CI-ITERATION   0: 
   -73.956061007   0.000000000000 (    0.00)
   CI-PROBLEM SOLVED
   DENSITIES MADE
   E(CAS)=   -73.956061007 Eh DE=   -9.097137e-04
   --- Energy gap subspaces: Ext-Act = 1.000   Act-Int = -0.850
   --- current l-shift: Up(Ext-Act) = 0.00   Dn(Act-Int) = 1.85
   N(occ)=  1.99670 1.98186 0.01814 0.00330
   ||g|| =     8.716834e-02 Max(G)=   -8.564618e-02 Rot=4,0
   --- Orbital Update [   SuperCI]
   SUPERCI-ITER   0: DE=    -0.004621593 <r|r>=      0.000000796
   SUPERCI-ITER   1: DE=    -0.000004917 <r|r>=      0.000007361
   SUPERCI-ITER   2: DE=    -0.000000439 <r|r>=      0.000000000
   <Psi(SX)|Psi(SX)>=      1.000072070 DE(SX)=-0.004626949
   Largest coefficient in the normalized |SX> wavefunction= 0.164042333
   --- Density off from convergence (1.337e-03). Exact active Fock build

MACRO-ITERATION  24: 
   --- Canonicalize Internal Space
   --- Canonicalize External Space
   --- Inactive Energy E0 = -65.33167580 Eh
CI-ITERATION   0: 
   -73.957712265   0.000000000000 (    0.00)
   CI-PROBLEM SOLVED
   DENSITIES MADE
   E(CAS)=   -73.957712265 Eh DE=   -1.651258e-03
   --- Energy gap subspaces: Ext-Act = 1.000   Act-Int = -0.841
   --- current l-shift: Up(Ext-Act) = 0.00   Dn(Act-Int) = 1.84
   N(occ)=  1.99662 1.98040 0.01965 0.00333
   ||g|| =     8.811396e-02 Max(G)=    8.555212e-02 Rot=4,0
   --- Orbital Update [   SuperCI]
   SUPERCI-ITER   0: DE=    -0.001459535 <r|r>=      0.000000182
   SUPERCI-ITER   1: DE=    -0.000000071 <r|r>=      0.000000002
   <Psi(SX)|Psi(SX)>=      1.000002371 DE(SX)=-0.001459606
   Largest coefficient in the normalized |SX> wavefunction= 0.007908384
   --- Density off from convergence (1.737e-03). Exact active Fock build

MACRO-ITERATION  25: 
   --- Canonicalize Internal Space
   --- Canonicalize External Space
   --- Inactive Energy E0 = -65.24019088 Eh
CI-ITERATION   0: 
   -73.956928818   0.000000000000 (    0.00)
   CI-PROBLEM SOLVED
   DENSITIES MADE
   E(CAS)=   -73.956928818 Eh DE=    7.834469e-04
   --- Energy gap subspaces: Ext-Act = 1.000   Act-Int = -0.861
   --- current l-shift: Up(Ext-Act) = 0.00   Dn(Act-Int) = 1.86
   N(occ)=  1.99669 1.98157 0.01845 0.00328
   ||g|| =     9.046553e-02 Max(G)=   -8.685523e-02 Rot=4,0
   --- Orbital Update [   SuperCI]
   --- Perturbative SuperCI
   SUPERCI-ITER   0: DE=    -0.001515531 <r|r>=      0.000000176
   <Psi(SX)|Psi(SX)>=      0.999999144 DE(SX)=-0.001515531
   Largest coefficient in the normalized |SX> wavefunction= 0.008307896
   --- Density off from convergence (1.205e-03). Exact active Fock build

MACRO-ITERATION  26: 
   --- Canonicalize Internal Space
   --- Canonicalize External Space
   --- Inactive Energy E0 = -65.33161033 Eh
CI-ITERATION   0: 
   -73.957745882   0.000000000000 (    0.00)
   CI-PROBLEM SOLVED
   DENSITIES MADE
   E(CAS)=   -73.957745882 Eh DE=   -8.170646e-04
   --- Energy gap subspaces: Ext-Act = 1.000   Act-Int = -0.850
   --- current l-shift: Up(Ext-Act) = 0.00   Dn(Act-Int) = 1.85
   N(occ)=  1.99665 1.98033 0.01969 0.00333
   ||g|| =     8.757011e-02 Max(G)=    8.580144e-02 Rot=4,0
   --- Orbital Update [   SuperCI]
   --- Perturbative SuperCI
   SUPERCI-ITER   0: DE=    -0.001402539 <r|r>=      0.000000056
   <Psi(SX)|Psi(SX)>=      1.000000796 DE(SX)=-0.001402539
   Largest coefficient in the normalized |SX> wavefunction= 0.007914242
   --- Density off from convergence (1.238e-03). Exact active Fock build

MACRO-ITERATION  27: 
   --- Canonicalize Internal Space
   --- Canonicalize External Space
   --- Inactive Energy E0 = -65.41532588 Eh
CI-ITERATION   0: 
   -73.958486113   0.000000000000 (    0.00)
   CI-PROBLEM SOLVED
   DENSITIES MADE
   E(CAS)=   -73.958486113 Eh DE=   -7.402310e-04
   --- Energy gap subspaces: Ext-Act = 1.000   Act-Int = -0.842
   --- current l-shift: Up(Ext-Act) = 0.00   Dn(Act-Int) = 1.84
   N(occ)=  1.99661 1.97910 0.02091 0.00338
   ||g|| =     8.544654e-02 Max(G)=   -8.433847e-02 Rot=4,0
   --- Orbital Update [   SuperCI]
   --- Perturbative SuperCI
   SUPERCI-ITER   0: DE=    -0.001269696 <r|r>=      0.000000019
   <Psi(SX)|Psi(SX)>=      1.000000440 DE(SX)=-0.001269696
   Largest coefficient in the normalized |SX> wavefunction= 0.007521070
   --- Density off from convergence (1.226e-03). Exact active Fock build

MACRO-ITERATION  28: 
   --- Canonicalize Internal Space
   --- Canonicalize External Space
   --- Inactive Energy E0 = -65.49047817 Eh
CI-ITERATION   0: 
   -73.959164011   0.000000000000 (    0.00)
   CI-PROBLEM SOLVED
   DENSITIES MADE
   E(CAS)=   -73.959164011 Eh DE=   -6.778979e-04
   --- Energy gap subspaces: Ext-Act = 1.000   Act-Int = -0.835
   --- current l-shift: Up(Ext-Act) = 0.00   Dn(Act-Int) = 1.84
   N(occ)=  1.99657 1.97792 0.02209 0.00342
   ||g|| =     8.310541e-02 Max(G)=    8.228512e-02 Rot=4,0
   --- Orbital Update [   SuperCI]
   SUPERCI-ITER   0: DE=    -0.001147393 <r|r>=      0.000000006
   <Psi(SX)|Psi(SX)>=      0.999998794 DE(SX)=-0.001147393
   Largest coefficient in the normalized |SX> wavefunction= 0.007182785
   --- Density off from convergence (1.186e-03). Exact active Fock build

MACRO-ITERATION  29: 
   --- Canonicalize Internal Space
   --- Canonicalize External Space
   --- Inactive Energy E0 = -65.56206050 Eh
CI-ITERATION   0: 
   -73.959785990   0.000000000000 (    0.00)
   CI-PROBLEM SOLVED
   DENSITIES MADE
   E(CAS)=   -73.959785990 Eh DE=   -6.219788e-04
   --- Energy gap subspaces: Ext-Act = 1.000   Act-Int = -0.829
   --- current l-shift: Up(Ext-Act) = 0.00   Dn(Act-Int) = 1.83
   N(occ)=  1.99654 1.97675 0.02325 0.00346
   ||g|| =     8.043842e-02 Max(G)=    7.978840e-02 Rot=4,0
   --- Orbital Update [   SuperCI]
   SUPERCI-ITER   0: DE=    -0.001018465 <r|r>=      0.000000001
   <Psi(SX)|Psi(SX)>=      1.000000111 DE(SX)=-0.001018465
   Largest coefficient in the normalized |SX> wavefunction= 0.006705581
   --- Density off from convergence (1.169e-03). Exact active Fock build

MACRO-ITERATION  30: 
   --- Canonicalize Internal Space
   --- Canonicalize External Space
   --- Inactive Energy E0 = -65.62211720 Eh
CI-ITERATION   0: 
   -73.960348784   0.000000000000 (    0.00)
   CI-PROBLEM SOLVED
   DENSITIES MADE
   E(CAS)=   -73.960348784 Eh DE=   -5.627943e-04
   --- Energy gap subspaces: Ext-Act = 1.000   Act-Int = -0.822
   --- current l-shift: Up(Ext-Act) = 0.00   Dn(Act-Int) = 1.82
   N(occ)=  1.99651 1.97569 0.02431 0.00350
   ||g|| =     7.726984e-02 Max(G)=   -7.669480e-02 Rot=4,0
   --- Orbital Update [   SuperCI]
   SUPERCI-ITER   0: DE=    -0.000903842 <r|r>=      0.000000001
   <Psi(SX)|Psi(SX)>=      1.000000046 DE(SX)=-0.000903842
   Largest coefficient in the normalized |SX> wavefunction= 0.006288931
   --- Density off from convergence (1.059e-03). Exact active Fock build

MACRO-ITERATION  31: 
   --- Canonicalize Internal Space
   --- Canonicalize External Space
   --- Inactive Energy E0 = -65.67573898 Eh
CI-ITERATION   0: 
   -73.960855266   0.000000000000 (    0.00)
   CI-PROBLEM SOLVED
   DENSITIES MADE
   E(CAS)=   -73.960855266 Eh DE=   -5.064817e-04
   --- Energy gap subspaces: Ext-Act = 1.000   Act-Int = -0.816
   --- current l-shift: Up(Ext-Act) = 0.00   Dn(Act-Int) = 1.82
   N(occ)=  1.99648 1.97471 0.02528 0.00353
   ||g|| =     7.374320e-02 Max(G)=    7.322091e-02 Rot=4,0
   --- Orbital Update [   SuperCI]
   SUPERCI-ITER   0: DE=    -0.000795692 <r|r>=      0.000000000
   <Psi(SX)|Psi(SX)>=      1.000000018 DE(SX)=-0.000795692
   Largest coefficient in the normalized |SX> wavefunction= 0.005874879
   --- Density off from convergence (9.774e-04). Exact active Fock build

MACRO-ITERATION  32: 
   --- Canonicalize Internal Space
   --- Canonicalize External Space
   --- Inactive Energy E0 = -65.72336724 Eh
CI-ITERATION   0: 
   -73.961306493   0.000000000000 (    0.00)
   CI-PROBLEM SOLVED
   DENSITIES MADE
   E(CAS)=   -73.961306493 Eh DE=   -4.512269e-04
   --- Energy gap subspaces: Ext-Act = 1.000   Act-Int = -0.810
   --- current l-shift: Up(Ext-Act) = 0.00   Dn(Act-Int) = 1.81
   N(occ)=  1.99645 1.97382 0.02617 0.00356
   ||g|| =     6.993742e-02 Max(G)=    6.945107e-02 Rot=4,0
   --- Orbital Update [   SuperCI]
   SUPERCI-ITER   0: DE=    -0.000696290 <r|r>=      0.000000000
   <Psi(SX)|Psi(SX)>=      1.000000002 DE(SX)=-0.000696290
   Largest coefficient in the normalized |SX> wavefunction= 0.005562569
   --- Density off from convergence (8.881e-04). Exact active Fock build

MACRO-ITERATION  33: 
   --- Canonicalize Internal Space
   --- Canonicalize External Space
   --- Inactive Energy E0 = -65.76563675 Eh
CI-ITERATION   0: 
   -73.961704882   0.000000000000 (    0.00)
   CI-PROBLEM SOLVED
   DENSITIES MADE
   E(CAS)=   -73.961704882 Eh DE=   -3.983891e-04
   --- Energy gap subspaces: Ext-Act = 1.000   Act-Int = -0.805
   --- current l-shift: Up(Ext-Act) = 0.00   Dn(Act-Int) = 1.80
   N(occ)=  1.99643 1.97303 0.02696 0.00359
   ||g|| =     6.594347e-02 Max(G)=   -6.548327e-02 Rot=4,0
   --- Orbital Update [   SuperCI]
   SUPERCI-ITER   0: DE=    -0.000606086 <r|r>=      0.000000000
   <Psi(SX)|Psi(SX)>=      0.999999994 DE(SX)=-0.000606086
   Largest coefficient in the normalized |SX> wavefunction= 0.005378768
   --- Density off from convergence (7.966e-04). Exact active Fock build

MACRO-ITERATION  34: 
   --- Canonicalize Internal Space
   --- Canonicalize External Space
   --- Inactive Energy E0 = -65.80314765 Eh
CI-ITERATION   0: 
   -73.962053741   0.000000000000 (    0.00)
   CI-PROBLEM SOLVED
   DENSITIES MADE
   E(CAS)=   -73.962053741 Eh DE=   -3.488584e-04
   --- Energy gap subspaces: Ext-Act = 1.000   Act-Int = -0.799
   --- current l-shift: Up(Ext-Act) = 0.00   Dn(Act-Int) = 1.80
   N(occ)=  1.99640 1.97232 0.02766 0.00361
   ||g|| =     6.184994e-02 Max(G)=    6.140943e-02 Rot=4,0
   --- Orbital Update [   SuperCI]
   SUPERCI-ITER   0: DE=    -0.000525196 <r|r>=      0.000000000
   <Psi(SX)|Psi(SX)>=      0.999999991 DE(SX)=-0.000525196
   Largest coefficient in the normalized |SX> wavefunction= 0.005200803
   --- Density off from convergence (7.061e-04). Exact active Fock build

MACRO-ITERATION  35: 
   --- Canonicalize Internal Space
   --- Canonicalize External Space
   --- Inactive Energy E0 = -65.83646268 Eh
CI-ITERATION   0: 
   -73.962357002   0.000000000000 (    0.00)
   CI-PROBLEM SOLVED
   DENSITIES MADE
   E(CAS)=   -73.962357002 Eh DE=   -3.032616e-04
   --- Energy gap subspaces: Ext-Act = 1.000   Act-Int = -0.794
   --- current l-shift: Up(Ext-Act) = 0.00   Dn(Act-Int) = 1.79
   N(occ)=  1.99638 1.97170 0.02828 0.00364
   ||g|| =     5.773710e-02 Max(G)=   -5.731158e-02 Rot=4,0
   --- Orbital Update [   SuperCI]
   SUPERCI-ITER   0: DE=    -0.000453424 <r|r>=      0.000000000
   <Psi(SX)|Psi(SX)>=      0.999999990 DE(SX)=-0.000453424
   Largest coefficient in the normalized |SX> wavefunction= 0.005028211
   --- Density off from convergence (6.193e-04). Exact active Fock build

MACRO-ITERATION  36: 
   --- Canonicalize Internal Space
   --- Canonicalize External Space
   --- Inactive Energy E0 = -65.86610000 Eh
CI-ITERATION   0: 
   -73.962618955   0.000000000000 (    0.00)
   CI-PROBLEM SOLVED
   DENSITIES MADE
   E(CAS)=   -73.962618955 Eh DE=   -2.619532e-04
   --- Energy gap subspaces: Ext-Act = 1.000   Act-Int = -0.789
   --- current l-shift: Up(Ext-Act) = 0.00   Dn(Act-Int) = 1.79
   N(occ)=  1.99636 1.97116 0.02882 0.00366
   ||g|| =     5.367358e-02 Max(G)=    5.325939e-02 Rot=4,0
   --- Orbital Update [   SuperCI]
   SUPERCI-ITER   0: DE=    -0.000390329 <r|r>=      0.000000000
   <Psi(SX)|Psi(SX)>=      0.999999991 DE(SX)=-0.000390329
   Largest coefficient in the normalized |SX> wavefunction= 0.004860652
   --- Density off from convergence (5.380e-04). Exact active Fock build

MACRO-ITERATION  37: 
   --- Canonicalize Internal Space
   --- Canonicalize External Space
   --- Inactive Energy E0 = -65.89252913 Eh
CI-ITERATION   0: 
   -73.962844004   0.000000000000 (    0.00)
   CI-PROBLEM SOLVED
   DENSITIES MADE
   E(CAS)=   -73.962844004 Eh DE=   -2.250483e-04
   --- Energy gap subspaces: Ext-Act = 1.000   Act-Int = -0.784
   --- current l-shift: Up(Ext-Act) = 0.00   Dn(Act-Int) = 1.78
   N(occ)=  1.99635 1.97070 0.02928 0.00368
   ||g|| =     4.971507e-02 Max(G)=   -4.930925e-02 Rot=4,0
   --- Orbital Update [   SuperCI]
   SUPERCI-ITER   0: DE=    -0.000335303 <r|r>=      0.000000000
   <Psi(SX)|Psi(SX)>=      0.999999991 DE(SX)=-0.000335303
   Largest coefficient in the normalized |SX> wavefunction= 0.004697867
   --- Density off from convergence (4.635e-04). Exact active Fock build

MACRO-ITERATION  38: 
   --- Canonicalize Internal Space
   --- Canonicalize External Space
   --- Inactive Energy E0 = -65.91616971 Eh
CI-ITERATION   0: 
   -73.963036475   0.000000000000 (    0.00)
   CI-PROBLEM SOLVED
   DENSITIES MADE
   E(CAS)=   -73.963036475 Eh DE=   -1.924709e-04
   --- Energy gap subspaces: Ext-Act = 1.000   Act-Int = -0.779
   --- current l-shift: Up(Ext-Act) = 0.00   Dn(Act-Int) = 1.78
   N(occ)=  1.99633 1.97030 0.02967 0.00370
   ||g|| =     4.590437e-02 Max(G)=    4.550444e-02 Rot=4,0
   --- Orbital Update [   SuperCI]
   SUPERCI-ITER   0: DE=    -0.000287635 <r|r>=      0.000000000
   <Psi(SX)|Psi(SX)>=      0.999999993 DE(SX)=-0.000287635
   Largest coefficient in the normalized |SX> wavefunction= 0.004539657
   --- Density off from convergence (3.964e-04). Exact active Fock build

MACRO-ITERATION  39: 
   --- Canonicalize Internal Space
   --- Canonicalize External Space
   --- Inactive Energy E0 = -65.93739238 Eh
CI-ITERATION   0: 
   -73.963200481   0.000000000000 (    0.00)
   CI-PROBLEM SOLVED
   DENSITIES MADE
   E(CAS)=   -73.963200481 Eh DE=   -1.640060e-04
   --- Energy gap subspaces: Ext-Act = 1.000   Act-Int = -0.775
   --- current l-shift: Up(Ext-Act) = 0.00   Dn(Act-Int) = 1.77
   N(occ)=  1.99631 1.96996 0.03001 0.00371
   ||g|| =     4.227239e-02 Max(G)=   -4.187625e-02 Rot=4,0
   --- Orbital Update [   SuperCI]
   SUPERCI-ITER   0: DE=    -0.000246570 <r|r>=      0.000000000
   <Psi(SX)|Psi(SX)>=      0.999999994 DE(SX)=-0.000246570
   Largest coefficient in the normalized |SX> wavefunction= 0.004385861
   --- Density off from convergence (3.369e-04). Exact active Fock build

MACRO-ITERATION  40: 
   --- Canonicalize Internal Space
   --- Canonicalize External Space
   --- Inactive Energy E0 = -65.95652137 Eh
CI-ITERATION   0: 
   -73.963339829   0.000000000000 (    0.00)
   CI-PROBLEM SOLVED
   DENSITIES MADE
   E(CAS)=   -73.963339829 Eh DE=   -1.393480e-04
   --- Energy gap subspaces: Ext-Act = 1.000   Act-Int = -0.770
   --- current l-shift: Up(Ext-Act) = 0.00   Dn(Act-Int) = 1.77
   N(occ)=  1.99630 1.96968 0.03029 0.00373
   ||g|| =     3.883957e-02 Max(G)=    3.844544e-02 Rot=4,0
   --- Orbital Update [   SuperCI]
   SUPERCI-ITER   0: DE=    -0.000211350 <r|r>=      0.000000000
   <Psi(SX)|Psi(SX)>=      0.999999995 DE(SX)=-0.000211350
   Largest coefficient in the normalized |SX> wavefunction= 0.004236349
   --- Density off from convergence (2.848e-04). Exact active Fock build

MACRO-ITERATION  41: 
   --- Canonicalize Internal Space
   --- Canonicalize External Space
   --- Inactive Energy E0 = -65.97383799 Eh
CI-ITERATION   0: 
   -73.963457969   0.000000000000 (    0.00)
   CI-PROBLEM SOLVED
   DENSITIES MADE
   E(CAS)=   -73.963457969 Eh DE=   -1.181407e-04
   --- Energy gap subspaces: Ext-Act = 1.000   Act-Int = -0.766
   --- current l-shift: Up(Ext-Act) = 0.00   Dn(Act-Int) = 1.77
   N(occ)=  1.99629 1.96944 0.03053 0.00374
   ||g|| =     3.561767e-02 Max(G)=   -3.522404e-02 Rot=4,0
   --- Orbital Update [   SuperCI]
   SUPERCI-ITER   0: DE=    -0.000181248 <r|r>=      0.000000000
   <Psi(SX)|Psi(SX)>=      0.999999996 DE(SX)=-0.000181248
   Largest coefficient in the normalized |SX> wavefunction= 0.004091010
   --- Density off from convergence (2.396e-04). Exact active Fock build

MACRO-ITERATION  42: 
   --- Canonicalize Internal Space
   --- Canonicalize External Space
   --- Inactive Energy E0 = -65.98958472 Eh
CI-ITERATION   0: 
   -73.963557979   0.000000000000 (    0.00)
   CI-PROBLEM SOLVED
   DENSITIES MADE
   E(CAS)=   -73.963557979 Eh DE=   -1.000093e-04
   --- Energy gap subspaces: Ext-Act = 1.000   Act-Int = -0.762
   --- current l-shift: Up(Ext-Act) = 0.00   Dn(Act-Int) = 1.76
   N(occ)=  1.99627 1.96924 0.03073 0.00376
   ||g|| =     3.261142e-02 Max(G)=    3.221698e-02 Rot=4,0
   --- Orbital Update [   SuperCI]
   SUPERCI-ITER   0: DE=    -0.000155587 <r|r>=      0.000000000
   <Psi(SX)|Psi(SX)>=      0.999999996 DE(SX)=-0.000155587
   Largest coefficient in the normalized |SX> wavefunction= 0.003949747
   --- Density off from convergence (2.008e-04). Exact active Fock build

MACRO-ITERATION  43: 
   --- Canonicalize Internal Space
   --- Canonicalize External Space
   --- Inactive Energy E0 = -66.00396946 Eh
CI-ITERATION   0: 
   -73.963642561   0.000000000000 (    0.00)
   CI-PROBLEM SOLVED
   DENSITIES MADE
   E(CAS)=   -73.963642561 Eh DE=   -8.458225e-05
   --- Energy gap subspaces: Ext-Act = 1.000   Act-Int = -0.758
   --- current l-shift: Up(Ext-Act) = 0.00   Dn(Act-Int) = 1.76
   N(occ)=  1.99626 1.96907 0.03090 0.00377
   ||g|| =     2.982009e-02 Max(G)=   -2.942373e-02 Rot=4,0
   --- Orbital Update [   SuperCI]
   SUPERCI-ITER   0: DE=    -0.000133751 <r|r>=      0.000000000
   <Psi(SX)|Psi(SX)>=      0.999999997 DE(SX)=-0.000133751
   Largest coefficient in the normalized |SX> wavefunction= 0.003812475
   --- Density off from convergence (1.677e-04). Exact active Fock build

MACRO-ITERATION  44: 
   ===>>> Convergence to 3.0e-02 achieved - switching to Step=DIIS
   --- Inactive Energy E0 = -66.01716975 Eh
CI-ITERATION   0: 
   -73.963714068   0.000000000000 (    0.00)
   CI-PROBLEM SOLVED
   DENSITIES MADE
   E(CAS)=   -73.963714068 Eh DE=   -7.150700e-05
   --- Energy gap subspaces: Ext-Act = 1.000   Act-Int = -0.754
   --- current l-shift: Up(Ext-Act) = 0.00   Dn(Act-Int) = 1.75
   N(occ)=  1.99625 1.96893 0.03104 0.00378
   ||g|| =     2.723891e-02 Max(G)=   -2.683969e-02 Rot=4,0
   --- Orbital Update [      DIIS]
   --- SFit(Active Orbitals)
   --- Density off from convergence (1.392e-04). Exact active Fock build

MACRO-ITERATION  45: 
   --- Inactive Energy E0 = -66.06854190 Eh
CI-ITERATION   0: 
   -73.963920137   0.000000000000 (    0.00)
   CI-PROBLEM SOLVED
   DENSITIES MADE
   E(CAS)=   -73.963920137 Eh DE=   -2.060692e-04
   --- Energy gap subspaces: Ext-Act = 1.000   Act-Int = -0.735
   --- current l-shift: Up(Ext-Act) = 0.00   Dn(Act-Int) = 1.74
   N(occ)=  1.99620 1.96856 0.03140 0.00383
   ||g|| =     1.835322e-02 Max(G)=    1.789478e-02 Rot=4,0
   --- Orbital Update [      DIIS]
   --- SFit(Active Orbitals)
   --- Density off from convergence (3.691e-04). Exact active Fock build

MACRO-ITERATION  46: 
   --- Inactive Energy E0 = -66.17874742 Eh
CI-ITERATION   0: 
   -73.964119899   0.000000000000 (    0.00)
   CI-PROBLEM SOLVED
   DENSITIES MADE
   E(CAS)=   -73.964119899 Eh DE=   -1.997617e-04
   --- Energy gap subspaces: Ext-Act = 1.000   Act-Int = -0.689
   --- current l-shift: Up(Ext-Act) = 0.00   Dn(Act-Int) = 1.69
   N(occ)=  1.99610 1.96829 0.03168 0.00393
   ||g|| =     2.606077e-03 Max(G)=   -1.937839e-03 Rot=3,0
   --- Orbital Update [      DIIS]
   --- SFit(Active Orbitals)
   --- Density off from convergence (2.772e-04). Exact active Fock build

MACRO-ITERATION  47: 
   --- Inactive Energy E0 = -66.22997447 Eh
CI-ITERATION   0: 
   -73.964137901   0.000000000000 (    0.00)
   CI-PROBLEM SOLVED
   DENSITIES MADE
   E(CAS)=   -73.964137901 Eh DE=   -1.800174e-05
   --- Energy gap subspaces: Ext-Act = 1.000   Act-Int = -0.667
   --- current l-shift: Up(Ext-Act) = 0.00   Dn(Act-Int) = 1.67
   N(occ)=  1.99605 1.96827 0.03171 0.00397
   ||g|| =     2.118393e-03 Max(G)=   -1.152314e-03 Rot=6,0
   --- Orbital Update [      DIIS]
   --- SFit(Active Orbitals)
   --- Density off from convergence (1.760e-04). Exact active Fock build

MACRO-ITERATION  48: 
   --- Inactive Energy E0 = -66.27461162 Eh
CI-ITERATION   0: 
   -73.964141787   0.000000000000 (    0.00)
   CI-PROBLEM SOLVED
   DENSITIES MADE
   E(CAS)=   -73.964141787 Eh DE=   -3.886282e-06
   --- Energy gap subspaces: Ext-Act = 1.000   Act-Int = -0.647
   --- current l-shift: Up(Ext-Act) = 0.00   Dn(Act-Int) = 1.65
   N(occ)=  1.99602 1.96825 0.03172 0.00401
   ||g|| =     3.170912e-03 Max(G)=    2.982748e-03 Rot=6,0
   --- Orbital Update [      DIIS]
   --- SFit(Active Orbitals)
   --- Density off from convergence (1.689e-04). Exact active Fock build

MACRO-ITERATION  49: 
   --- Inactive Energy E0 = -66.27425474 Eh
CI-ITERATION   0: 
   -73.964141995   0.000000000000 (    0.00)
   CI-PROBLEM SOLVED
   DENSITIES MADE
   E(CAS)=   -73.964141995 Eh DE=   -2.077502e-07
   --- Energy gap subspaces: Ext-Act = 1.000   Act-Int = -0.647
   --- current l-shift: Up(Ext-Act) = 0.00   Dn(Act-Int) = 1.65
   N(occ)=  1.99602 1.96825 0.03172 0.00400
   ||g|| =     1.880026e-03 Max(G)=    1.743438e-03 Rot=6,0
   --- Orbital Update [      DIIS]
   --- SFit(Active Orbitals)
   --- Density off from convergence (1.159e-05). Exact active Fock build

MACRO-ITERATION  50: 
   --- Inactive Energy E0 = -66.27088367 Eh
CI-ITERATION   0: 
   -73.964142413   0.000000000000 (    0.00)
   CI-PROBLEM SOLVED
   DENSITIES MADE
   E(CAS)=   -73.964142413 Eh DE=   -4.181434e-07
   --- Energy gap subspaces: Ext-Act = 1.000   Act-Int = -0.649
   --- current l-shift: Up(Ext-Act) = 0.00   Dn(Act-Int) = 1.65
   N(occ)=  1.99602 1.96825 0.03172 0.00400
   ||g|| =     5.591575e-04 Max(G)=    3.854012e-04 Rot=6,0
                     ---- THE CAS-SCF GRADIENT HAS CONVERGED ----
                            --- FINALIZING ORBITALS ---
                    ---- DOING ONE FINAL ITERATION FOR PRINTING ----
   --- Canonicalize Internal Space
   --- Canonicalize External Space

MACRO-ITERATION  51: 
   --- Inactive Energy E0 = -66.27088367 Eh
   --- All densities will be recomputed
CI-ITERATION   0: 
   -73.964142413   0.000000000000 (    0.00)
   CI-PROBLEM SOLVED
   DENSITIES MADE
   E(CAS)=   -73.964142413 Eh DE=    2.700062e-13
   --- Energy gap subspaces: Ext-Act = 1.000   Act-Int = -0.651
   --- current l-shift: Up(Ext-Act) = 0.00   Dn(Act-Int) = 1.65
   N(occ)=  1.99602 1.96825 0.03172 0.00400
   ||g|| =     5.591575e-04 Max(G)=   -3.856562e-04 Rot=6,0
--------------
CASSCF RESULTS
--------------

Final CASSCF energy       : -73.964142413 Eh   -2012.6666 eV

----------------
ORBITAL ENERGIES
----------------

  NO   OCC          E(Eh)            E(eV) 
   0   2.0000     -20.369743      -554.2889 
   1   2.0000      -1.004166       -27.3247 
   2   2.0000      -0.477560       -12.9951 
   3   1.9960      -1.128969       -30.7208 
   4   1.9683      -0.637226       -17.3398 
   5   0.0317       0.563590        15.3361 
   6   0.0040       1.291427        35.1415 


---------------------------------------------
CAS-SCF STATES FOR BLOCK  0 MULT= 1 NROOTS= 1
---------------------------------------------

ROOT   0:  E=     -73.9641424127 Eh
      0.98217 [     0]: 2200
      0.01496 [     3]: 2020


--------------
DENSITY MATRIX
--------------

                  0          1          2          3    
      0       1.996022  -0.000000  -0.000000   0.000000
      1      -0.000000   1.968252   0.000000  -0.000000
      2      -0.000000   0.000000   0.031724  -0.000000
      3       0.000000  -0.000000  -0.000000   0.004002
Trace of the electron density:  4.000000

-----------------
ENERGY COMPONENTS
-----------------

One electron energy          :   -127.434145226 Eh       -3467.6594 eV
Two electron energy          :     40.040965439 Eh        1089.5701 eV
Nuclear repulsion energy     :     13.429037374 Eh         365.4227 eV
                               ----------------
                                  -73.964142413

Kinetic energy               :     75.986746489 Eh        2067.7045 eV
Potential energy             :   -149.950888902 Eh       -4080.3711 eV
Virial ratio                 :     -1.973382147 
                               ----------------
                                  -73.964142413

Core energy                  :    -66.270883670 Eh    -1803.3224 eV


----------------------------
LOEWDIN ORBITAL-COMPOSITIONS
----------------------------

                      0         1         2         3         4         5   
                 -20.36974  -1.00417  -0.47756  -1.12897  -0.63723   0.56359
                   2.00000   2.00000   2.00000   1.99602   1.96825   0.03172
                  --------  --------  --------  --------  --------  --------
 0 O  s              99.6      71.3       0.0       4.3       0.0       2.8
 0 O  pz              0.0      17.6       0.0      66.2       0.1       0.0
 0 O  px              0.0       0.5       5.7       0.3      58.3      35.2
 0 O  py              0.0       0.0      94.3       0.0       3.5       2.1
 1 H  s               0.4       8.4       0.0      28.7       0.0       0.7
 2 H  s               0.0       2.2       0.0       0.5      38.1      59.3

                      6   
                   1.29143
                   0.00400
                  --------
 0 O  s              22.0
 0 O  pz             16.1
 1 H  s              61.8

----------------------------
LOEWDIN REDUCED ACTIVE MOs  
----------------------------

                      0         1         2         3         4         5   
                 -20.36974  -1.00417  -0.47756  -1.12897  -0.63723   0.56359
                   2.00000   2.00000   2.00000   1.99602   1.96825   0.03172
                  --------  --------  --------  --------  --------  --------
 0 O  s              99.6      71.3       0.0       4.3       0.0       2.8
 0 O  pz              0.0      17.6       0.0      66.2       0.1       0.0
 0 O  px              0.0       0.5       5.7       0.3      58.3      35.2
 0 O  py              0.0       0.0      94.3       0.0       3.5       2.1
 1 H  s               0.4       8.4       0.0      28.7       0.0       0.7
 2 H  s               0.0       2.2       0.0       0.5      38.1      59.3

                      6   
                   1.29143
                   0.00400
                  --------
 0 O  s              22.0
 0 O  pz             16.1
 1 H  s              61.8
------------------------------------------------------------------------------
                           ORCA POPULATION ANALYSIS
------------------------------------------------------------------------------
Input electron density              ... H2O_CASSCF_1.scfp
BaseName (.gbw .S,...)              ... H2O_CASSCF_1

                    ********************************
                    * MULLIKEN POPULATION ANALYSIS *
                    ********************************

-----------------------
MULLIKEN ATOMIC CHARGES
-----------------------
   0 O :   -0.767656
   1 H :    0.557672
   2 H :    0.209984
Sum of atomic charges:   -0.0000000

--------------------------------
MULLIKEN REDUCED ORBITAL CHARGES
--------------------------------
  0 O s       :     3.916156  s :     3.916156
      pz      :     1.635559  p :     4.851500
      px      :     1.259876
      py      :     1.956066
  1 H s       :     0.442328  s :     0.442328
  2 H s       :     0.790016  s :     0.790016


                     *******************************
                     * LOEWDIN POPULATION ANALYSIS *
                     *******************************

----------------------
LOEWDIN ATOMIC CHARGES
----------------------
   0 O :   -0.427257
   1 H :    0.248709
   2 H :    0.178548

-------------------------------
LOEWDIN REDUCED ORBITAL CHARGES
-------------------------------
  0 O s       :     3.505293  s :     3.505293
      pz      :     1.676297  p :     4.921964
      px      :     1.287935
      py      :     1.957732
  1 H s       :     0.751291  s :     0.751291
  2 H s       :     0.821452  s :     0.821452


                      *****************************
                      * MAYER POPULATION ANALYSIS *
                      *****************************

  NA   - Mulliken gross atomic population
  ZA   - Total nuclear charge
  QA   - Mulliken gross atomic charge
  VA   - Mayer's total valence
  BVA  - Mayer's bonded valence
  FA   - Mayer's free valence

  ATOM       NA         ZA         QA         VA         BVA        FA
  0 O      8.7677     8.0000    -0.7677     1.6429     1.5732     0.0698
  1 H      0.4423     1.0000     0.5577     0.6890     0.6834     0.0056
  2 H      0.7900     1.0000     0.2100     0.9559     0.8905     0.0654

  Mayer bond orders larger than 0.100000
B(  0-O ,  1-H ) :   0.6830 B(  0-O ,  2-H ) :   0.8901 


-------------------------------------------------------------
 Forming the transition density       ... done in 0.0 sec
-------------------------------------------------------------
Memory for address arrays  		      ... done
Make address arrays			      ... done
Memory for buffers 			      ... done
Setting up spin-function prototypes	      ... (MAXOPEN=4) 0 2 4 6 done
Trivial cases - DOMO's			      ... done (  0.0 MB)
Number of open shells			    ...  0
domo->virtual excitations			... done (  0.0 MB)
domo->somo excitations				... done (  0.0 MB)
somo->virtual excitations			... done (  0.0 MB)
somo->somo excitations				... done (  0.0 MB)
Number of open shells			    ...  2
domo->virtual excitations			... done (  0.0 MB)
domo->somo excitations				... done (  0.0 MB)
somo->virtual excitations			... done (  0.0 MB)
somo->somo excitations				... done (  0.0 MB)
Number of open shells			    ...  4
domo->virtual excitations			... done (  0.0 MB)
domo->somo excitations				... done (  0.0 MB)
somo->virtual excitations			... done (  0.0 MB)
somo->somo excitations				... done (  0.0 MB)
Coupling container construction done

--------------
CASSCF TIMINGS
--------------

Total time                       ...        1.2 sec
Sum of individual times          ...        1.0 sec ( 81.2%)

Calculation of AO operators
   F(Core) operator              ...        0.0 sec (  1.9%)
   G(Act) operator               ...        0.0 sec (  2.1%)
Calculation of MO transformed quantities
   J(MO) operators               ...        0.2 sec ( 15.9%)
   AO->MO one electron integrals ...        0.0 sec (  0.0%)
Configuration interaction steps
   CI-setup phase                ...        0.0 sec (  0.8%)
   CI-solution phase             ...        0.7 sec ( 52.7%)
   Generation of densities       ...        0.0 sec (  0.5%)
Orbital improvement steps
   Orbital gradient              ...        0.0 sec (  0.4%)
   O(1) converger                ...        0.1 sec (  5.9%)
CPCM steps
   Total CPCM time               ...        0.0 sec (  0.8%)
Properties                       ...        0.0 sec (  0.1%)
   SOC integral calculation      ...        0.0 sec (  0.0%)
   SSC RMEs (incl. integrals)    ...        0.0 sec (  0.0%)
   SOC RMEs                      ...        0.0 sec (  0.0%)

Maximum memory used throughout the entire CASSCF-calculation: 29.9 MB


           ************************************************************
           *        Program running with 4 parallel MPI-processes     *
           *              working on a common directory               *
           ************************************************************

------------------------------------------------------------------------------
                         ORCA PROPERTY INTEGRAL CALCULATIONS
------------------------------------------------------------------------------

GBWName                                   ... H2O_CASSCF_1.gbw
Number of atoms                           ...      3
Number of basis functions                 ...      7
Max core memory                           ...   1024 MB

Dipole integrals                          ... YES
Quadrupole integrals                      ...  NO
Linear momentum integrals                 ...  NO
Angular momentum integrals                ... YES
Higher moments length integrals           ...  NO
Higher moments velocity integrals         ...  NO
Kinetic energy integrals                  ...  NO
GIAO right hand sides                     ...  NO
GIAO dipole derivative integrals          ...  NO
SOC integrals                             ...  NO
EPR diamagnetic integrals (GIAO)          ...  NO
EPR gauge integrals                       ...  NO
Field gradient integrals                  ...  NO (   0 nuclei)
Spin-dipole/Fermi contact integrals       ...  NO (   0 nuclei)
Contact density integrals                 ...  NO (   0 nuclei)
Nucleus-orbit integrals                   ...  NO (   0 nuclei)
Geometric perturbations                   ...  NO (   3 nuclei)

Choice of electric origin   ... Center of mass
Position of electric origin ... ( -0.0910,  0.0221,  0.0945) 
Choice of magnetic origin   ... GIAO
Position of magnetic origin ... (  0.0000,  0.0000,  0.0000) 

Calculating integrals                     ... Electric Dipole (Length)     done (  0.0 sec)
Calculating integrals                     ... Angular Momentum  (ElOri)    done (  0.0 sec)

Property integrals calculated in   0.0 sec

Maximum memory used throughout the entire PROPINT-calculation: 2.1 MB


           ************************************************************
           *        Program running with 4 parallel MPI-processes     *
           *              working on a common directory               *
[...]
   <Psi(SX)|Psi(SX)>=      1.000000003 DE(SX)=-0.000005399
   Largest coefficient in the normalized |SX> wavefunction= 0.001671754
   --- Density off from convergence (9.396e-01). Exact active Fock build

MACRO-ITERATION   2: 
   ===>>> Convergence to 3.0e-02 achieved - switching to Step=DIIS
   --- Inactive Energy E0 = -70.01158778 Eh
CI-ITERATION   0: 
   -74.851466550   0.000000000000 (    0.00)
   CI-PROBLEM SOLVED
   DENSITIES MADE
   E(CAS)=   -74.851466550 Eh DE=   -1.483696e-05
   --- Energy gap subspaces: Ext-Act = 1.000   Act-Int = -0.233
   --- current l-shift: Up(Ext-Act) = 0.50   Dn(Act-Int) = 1.73
   N(occ)=  1.97117 1.06026 0.93975 0.02883
   ||g|| =     5.562407e-03 Max(G)=   -3.237453e-03 Rot=5,0
   --- Orbital Update [      DIIS]
   --- Density off from convergence (1.290e-04). Exact active Fock build

MACRO-ITERATION   3: 
   --- Inactive Energy E0 = -70.01146320 Eh
CI-ITERATION   0: 
   -74.851468845   0.000000000000 (    0.00)
   CI-PROBLEM SOLVED
   DENSITIES MADE
   E(CAS)=   -74.851468845 Eh DE=   -2.294472e-06
   --- Energy gap subspaces: Ext-Act = 1.000   Act-Int = -0.233
   --- current l-shift: Up(Ext-Act) = 0.33   Dn(Act-Int) = 1.57
   N(occ)=  1.97117 1.06018 0.93982 0.02882
   ||g|| =     4.066354e-03 Max(G)=    3.136899e-03 Rot=5,0
   --- Orbital Update [      DIIS]
   --- SFit(Active Orbitals)
   --- Density off from convergence (3.692e-04). Exact active Fock build

MACRO-ITERATION   4: 
   --- Inactive Energy E0 = -70.01139070 Eh
CI-ITERATION   0: 
   -74.851469079   0.000000000000 (    0.00)
   CI-PROBLEM SOLVED
   DENSITIES MADE
   E(CAS)=   -74.851469079 Eh DE=   -2.340270e-07
   --- Energy gap subspaces: Ext-Act = 1.000   Act-Int = -0.233
   --- current l-shift: Up(Ext-Act) = 0.00   Dn(Act-Int) = 1.23
   N(occ)=  1.97117 1.06018 0.93982 0.02882
   ||g|| =     6.085531e-04 Max(G)=   -4.287792e-04 Rot=5,0
                     ---- THE CAS-SCF GRADIENT HAS CONVERGED ----
                            --- FINALIZING ORBITALS ---
                    ---- DOING ONE FINAL ITERATION FOR PRINTING ----
   --- Canonicalize Internal Space
   --- Canonicalize External Space

MACRO-ITERATION   5: 
   --- Inactive Energy E0 = -70.01139070 Eh
   --- All densities will be recomputed
CI-ITERATION   0: 
   -74.851469079   0.000000000000 (    0.00)
   CI-PROBLEM SOLVED
   DENSITIES MADE
   E(CAS)=   -74.851469079 Eh DE=    2.415845e-13
   --- Energy gap subspaces: Ext-Act = 1.000   Act-Int = -0.233
   --- current l-shift: Up(Ext-Act) = 0.00   Dn(Act-Int) = 1.23
   N(occ)=  1.97117 1.06018 0.93982 0.02882
   ||g|| =     6.085531e-04 Max(G)=   -4.279497e-04 Rot=5,0
--------------
CASSCF RESULTS
--------------

Final CASSCF energy       : -74.851469079 Eh   -2036.8120 eV


---------------------------------------------
CAS-SCF STATES FOR BLOCK  0 MULT= 1 NROOTS= 1
---------------------------------------------

ROOT   0:  E=     -74.8514690789 Eh
      0.52191 [     0]: 2200
      0.46239 [     3]: 2020
      0.00689 [    15]: 0202
      0.00623 [    18]: 0022
      0.00256 [     9]: 1111


--------------
DENSITY MATRIX
--------------

                  0          1          2          3    
      0       1.971173   0.000000   0.000000   0.000000
      1       0.000000   1.060179  -0.000000   0.000000
      2       0.000000  -0.000000   0.939824   0.000000
      3       0.000000   0.000000   0.000000   0.028824
Trace of the electron density:  4.000000

-----------------
ENERGY COMPONENTS
-----------------

One electron energy          :   -115.731859684 Eh       -3149.2240 eV
Two electron energy          :     34.908162155 Eh         949.8994 eV
Nuclear repulsion energy     :      5.972228450 Eh         162.5126 eV
                               ----------------
                                  -74.851469079

Kinetic energy               :     74.796423830 Eh        2035.3142 eV
Potential energy             :   -149.647892909 Eh       -4072.1262 eV
Virial ratio                 :     -2.000735934 
                               ----------------
                                  -74.851469079

Core energy                  :    -70.011390697 Eh    -1905.1068 eV


----------------------------
LOEWDIN REDUCED ACTIVE MOs  
----------------------------

                      0         1         2         3         4         5   
                 -20.27611  -1.09288  -0.40734  -0.64027  -0.10040  -0.07099
                   2.00000   2.00000   2.00000   1.97117   1.06018   0.93982
                  --------  --------  --------  --------  --------  --------
 0 O  s             100.0      92.3       0.0       0.2       0.0       0.0
 0 O  pz              0.0       0.7       0.0       9.5      41.1      42.5
 0 O  px              0.0       3.5       5.6      46.0       8.3       7.2
 0 O  py              0.0       0.2      94.4       2.7       0.5       0.4
 1 H  s               0.0       0.0       0.0       0.0      50.1      49.8
 2 H  s               0.0       3.3       0.0      41.5       0.0       0.0

                      6   
                   0.63230
                   0.02882
                  --------
 0 O  s               7.5
 0 O  pz              6.2
 0 O  px             29.4
 2 H  s              55.2

-------------------------------------------------------------
 Forming the transition density       ... done in 0.0 sec
-------------------------------------------------------------
Memory for address arrays  		      ... done
Make address arrays			      ... done
Memory for buffers 			      ... done
Setting up spin-function prototypes	      ... (MAXOPEN=4) 0 2 4 6 done
Trivial cases - DOMO's			      ... done (  0.0 MB)
Number of open shells			    ...  0
domo->virtual excitations			... done (  0.0 MB)
domo->somo excitations				... done (  0.0 MB)
somo->virtual excitations			... done (  0.0 MB)
somo->somo excitations				... done (  0.0 MB)
Number of open shells			    ...  2
domo->virtual excitations			... done (  0.0 MB)
domo->somo excitations				... done (  0.0 MB)
somo->virtual excitations			... done (  0.0 MB)
somo->somo excitations				... done (  0.0 MB)
Number of open shells			    ...  4
domo->virtual excitations			... done (  0.0 MB)
domo->somo excitations				... done (  0.0 MB)
somo->virtual excitations			... done (  0.0 MB)
somo->somo excitations				... done (  0.0 MB)
Coupling container construction done

--------------
CASSCF TIMINGS
--------------

Total time                       ...        0.2 sec
Sum of individual times          ...        0.1 sec ( 68.7%)

Calculation of AO operators
   F(Core) operator              ...        0.0 sec (  1.7%)
   G(Act) operator               ...        0.0 sec (  1.3%)
Calculation of MO transformed quantities
   J(MO) operators               ...        0.0 sec ( 13.0%)
   AO->MO one electron integrals ...        0.0 sec (  0.0%)
Configuration interaction steps
   CI-setup phase                ...        0.0 sec (  6.6%)
   CI-solution phase             ...        0.1 sec ( 42.7%)
   Generation of densities       ...        0.0 sec (  0.4%)
Orbital improvement steps
   Orbital gradient              ...        0.0 sec (  0.3%)
   O(1) converger                ...        0.0 sec (  1.7%)
CPCM steps
   Total CPCM time               ...        0.0 sec (  0.4%)
Properties                       ...        0.0 sec (  0.6%)
   SOC integral calculation      ...        0.0 sec (  0.0%)
   SSC RMEs (incl. integrals)    ...        0.0 sec (  0.0%)
   SOC RMEs                      ...        0.0 sec (  0.0%)

Maximum memory used throughout the entire CASSCF-calculation: 29.9 MB


           ************************************************************
           *        Program running with 4 parallel MPI-processes     *
           *              working on a common directory               *
           ************************************************************

------------------------------------------------------------------------------
                         ORCA PROPERTY INTEGRAL CALCULATIONS
------------------------------------------------------------------------------

GBWName                                   ... H2O_CASSCF_1.gbw
Number of atoms                           ...      3
Number of basis functions                 ...      7
Max core memory                           ...   1024 MB

Dipole integrals                          ... YES
Quadrupole integrals                      ...  NO
Linear momentum integrals                 ...  NO
Angular momentum integrals                ... YES
Higher moments length integrals           ...  NO
Higher moments velocity integrals         ...  NO
Kinetic energy integrals                  ...  NO
GIAO right hand sides                     ...  NO
GIAO dipole derivative integrals          ...  NO
SOC integrals                             ...  NO
EPR diamagnetic integrals (GIAO)          ...  NO
EPR gauge integrals                       ...  NO
Field gradient integrals                  ...  NO (   0 nuclei)
Spin-dipole/Fermi contact integrals       ...  NO (   0 nuclei)
Contact density integrals                 ...  NO (   0 nuclei)
Nucleus-orbit integrals                   ...  NO (   0 nuclei)
Geometric perturbations                   ...  NO (   3 nuclei)

Choice of electric origin   ... Center of mass
Position of electric origin ... ( -0.0910,  0.0221,  0.3588) 
Choice of magnetic origin   ... GIAO
Position of magnetic origin ... (  0.0000,  0.0000,  0.0000) 

Calculating integrals                     ... Electric Dipole (Length)     done (  0.0 sec)
Calculating integrals                     ... Angular Momentum  (ElOri)    done (  0.0 sec)

Property integrals calculated in   0.0 sec

Maximum memory used throughout the entire PROPINT-calculation: 2.1 MB


           ************************************************************
           *        Program running with 4 parallel MPI-processes     *
           *              working on a common directory               *
           ************************************************************
-------------------------------------------------------------------------------
                              ORCA-CASSCF
-------------------------------------------------------------------------------

Setting up the integral package     ... done


==========================================
CASSCF UV, CD spectra and dipole moments
==========================================

--------------
CASSCF TIMINGS
--------------

Total time                       ...        0.1 sec
Sum of individual times          ...        0.1 sec ( 98.9%)

Calculation of AO operators
Calculation of MO transformed quantities
Configuration interaction steps
   CI-setup phase                ...        0.1 sec ( 98.9%)
Orbital improvement steps
Properties                       ...        0.0 sec (  0.0%)
   SOC integral calculation      ...        0.0 sec (  0.0%)
   SSC RMEs (incl. integrals)    ...        0.0 sec (  0.0%)
   SOC RMEs                      ...        0.0 sec (  0.0%)

Maximum memory used throughout the entire CASSCF-calculation: 24.7 MB

-------------------------   --------------------
FINAL SINGLE POINT ENERGY       -74.851469078941
-------------------------   --------------------

Storing actual gbw-file in H2O_CASSCF_1.016.gbw ... done


           ************************************************************
           *        Program running with 4 parallel MPI-processes     *
           *              working on a common directory               *
           ************************************************************

------------------------------------------------------------------------------
                              ORCA PROPERTY CALCULATIONS
------------------------------------------------------------------------------

GBWName                                 ... H2O_CASSCF_1.gbw
Number of atoms                         ...      3
Number of basis functions               ...      7
Max core memory                         ...   1024 MB

Electric properties:
Dipole moment                           ... YES
Quadrupole moment                       ...  NO
Static polarizability (Dipole/Dipole)   ...  NO
Static polarizability (Dipole/Quad.)    ...  NO
Static polarizability (Quad./Quad.)     ...  NO
Static polarizability (Velocity)        ...  NO

Atomic electric properties:
Dipole moment                           ...  NO
Quadrupole moment                       ...  NO
Static polarizability                   ...  NO

Choice of electric origin               ... Center of mass
Position of electric origin             ...    -0.090972     0.022139     0.358824

General magnetic properties:
Magnetizability                         ...  NO

EPR properties:
g-Tensor (aka g-matrix)                 ...  NO
Zero-Field splitting spin-orbit         ...  NO
Zero-field splitting spin-spin          ...  NO
Hyperfine couplings                     ...  NO (   0 nuclei)
Quadrupole couplings                    ...  NO (   0 nuclei)
Contact density                         ...  NO (   0 nuclei)

NMR properties:
Chemical shifts                         ...  NO (   0 nuclei)
Spin-rotation constants                 ...  NO (   0 nuclei)
Spin-spin couplings                     ...  NO (   0 nuclei,    0 pairs)

Choice of magnetic origin               ... GIAO
Position of magnetic origin             ...     0.000000     0.000000     0.000000

Properties with geometric perturbations:
SCF Hessian                             ...  NO
IR spectrum                             ...  NO
VCD spectrum                            ...  NO
X-ray spectroscopy properties:
SCF XES/XAS/RIXS spectra                ...  NO


-------------
DIPOLE MOMENT
-------------

Method             : CASSCF
Type of density    : Electron Density
Level              : Relaxed density
State              :   0
Multiplicity       :   1
Irrep              :   0
Energy             :   -74.8514690789414772 Eh
Relativity type    : 
Basis              : AO
                                X                 Y                 Z
Electronic contribution:      0.297733300      -0.072457865      -2.633459597
Nuclear contribution   :     -0.716131462       0.174281335       2.824674086
                        -----------------------------------------
Total Dipole Moment    :     -0.418398163       0.101823470       0.191214490
                        -----------------------------------------
Magnitude (a.u.)       :      0.471156049
Magnitude (Debye)      :      1.197583503



--------------------
Rotational spectrum 
--------------------
 
Rotational constants in cm-1:            22.722368             1.964114             1.807845 
Rotational constants in MHz :        681199.459239         58882.667935         54197.824921 

Dipole components along the rotational axes: 
x,y,z [a.u.] :     0.201150     0.426059     0.000000 
x,y,z [Debye]:     0.511283     1.082957     0.000000 

 

Dipole moment calculation done in   0.0 sec 

Maximum memory used throughout the entire PROP-calculation: 2.4 MB
                              **** TRAJECTORY DONE ***

                         SUMMARY OF THE CALCULATED SURFACE

------------------
TRAJECTORY RESULTS
------------------

Column   1: R

The Calculated Surface using the 'Actual Energy'
   0.50000000 -73.96414241
   0.66666667 -74.67219796
   0.83333333 -74.89889803
   1.00000000 -74.96074808
   1.16666667 -74.96094708
   1.33333333 -74.93981974
   1.50000000 -74.91454271
   1.66666667 -74.89224958
   1.83333333 -74.87565238
   2.00000000 -74.86485232
   2.16666667 -74.85850073
   2.33333333 -74.85500007
   2.50000000 -74.85314410
   2.66666667 -74.85218636
   2.83333333 -74.85170469
   3.00000000 -74.85146908

The Calculated Surface using the SCF energy
   0.50000000 -73.96414241
   0.66666667 -74.67219796
   0.83333333 -74.89889803
   1.00000000 -74.96074808
   1.16666667 -74.96094708
   1.33333333 -74.93981974
   1.50000000 -74.91454271
   1.66666667 -74.89224958
   1.83333333 -74.87565238
   2.00000000 -74.86485232
   2.16666667 -74.85850073
   2.33333333 -74.85500007
   2.50000000 -74.85314410
   2.66666667 -74.85218636
   2.83333333 -74.85170469
   3.00000000 -74.85146908


--------------------------------
SUGGESTED CITATIONS FOR THIS RUN
--------------------------------

Below you find a list of papers that are relevant to this ORCA run
We neither can nor want to force you to cite these papers, but we appreciate if you do
You receive ORCA, which is the product of decades of hard work by many enthusiastic individuals, for free
The only thing we kindly ask in return is that you cite our papers,
We deeply appreciate it, if you show your appreciation for ORCA by not just citing the generic ORCA reference.

Please note that relegating all ORCA citations to the supporting information does *not* help us.
SI sections are not indexed - citations you put there will not count into any citation statistics
But we need these citations in order to attract the funding resources that allow us to do what we are doing

Therefore, if you are a happy ORCA user, please consider citing a few of the papers listed below in the main body of your paper

In addition to the list printed below, the program has created the file H2O_CASSCF_1.bibtex that contains the list in bibtex format
You can import this file easily into all common literature databanks and citation aid programs


List of essential papers. We consider these as the minimum necessary citations

  1. Neese,F.
     Software update: the ORCA program system, version 5.0
     WIRES Comput. Molec. Sci., 2022 12(1)e1606
     doi.org/10.1002/wcms.1606

List of papers to cite with high priority. The work reported in these papers was absolutely
necessary for this run to complete.
Our perspective: the developers of density functionals and basis sets usually get cited in chemistry papers
Good! But without the algorithms to do something with them, the functionals or basis sets would not do anything.
Hence, in our opinion, the algorithm design and method developments papers are equally worthy of getting cited

  1. Neese,F.
     The SHARK Integral Generation and Digestion System
     J. Comp. Chem., 2022  1-16
     doi.org/10.1002/jcc.26942
  2. Ugandi,M.; Roemelt,M.
     A recursive formulation of one-electron coupling coefficients for spin-adapted configuration interaction calculations featuring many unpaired electrons
     Int. J. Quantum Chem., 2023 123 e27045
     doi.org/10.1002/qua.27045

List of suggested additional citations. These are papers that are important in the 'surrounding' of 
of this run, or papers that preceded the highly important papers. If you like your results we are grateful for a citation.

  1. Neese,F.
     The ORCA program system
     WIRES Comput. Molec. Sci., 2012 2(1)73-78
     doi.org/10.1002/wcms.81
  2. Neese,F.
     Software update: the ORCA program system, version 4.0
     WIRES Comput. Molec. Sci., 2018 8(1)1-6
     doi.org/10.1002/wcms.1327
  3. Neese,F.; Wennmohs,F.; Becker,U.; Riplinger,C.
     The ORCA quantum chemistry program package
     J. Chem. Phys., 2020 152 Art. No. L224108
     doi.org/10.1063/5.0004608

List of optional additional citations

  1. Neese,F.
     Approximate second-order SCF convergence for spin unrestricted wavefunctions
     Chem. Phys. Lett., 2000 325(1-3)93-98
     doi.org/10.1016/s0009-2614(00)00662-x

Timings for individual modules:

Sum of individual times          ...       49.769 sec (=   0.829 min)
Startup calculation              ...        8.093 sec (=   0.135 min)  16.3 %
SCF iterations                   ...        7.189 sec (=   0.120 min)  14.4 %
CASSCF iterations                ...       20.078 sec (=   0.335 min)  40.3 %
Property integrals               ...        7.145 sec (=   0.119 min)  14.4 %
Property calculations            ...        7.264 sec (=   0.121 min)  14.6 %
                             ****ORCA TERMINATED NORMALLY****
TOTAL RUN TIME: 0 days 0 hours 0 minutes 57 seconds 313 msec
