
                                 *****************
                                 * O   R   C   A *
                                 *****************

                                            #,                                       
                                            ###                                      
                                            ####                                     
                                            #####                                    
                                            ######                                   
                                           ########,                                 
                                     ,,################,,,,,                         
                               ,,#################################,,                 
                          ,,##########################################,,             
                       ,#########################################, ''#####,          
                    ,#############################################,,   '####,        
                  ,##################################################,,,,####,       
                ,###########''''           ''''###############################       
              ,#####''   ,,,,##########,,,,          '''####'''          '####       
            ,##' ,,,,###########################,,,                        '##       
           ' ,,###''''                  '''############,,,                           
         ,,##''                                '''############,,,,        ,,,,,,###''
      ,#''                                            '''#######################'''  
     '                                                          ''''####''''         
             ,#######,   #######,   ,#######,      ##                                
            ,#'     '#,  ##    ##  ,#'     '#,    #''#        ,####,   ,####,        
            ##       ##  ##   ,#'  ##            #'  '#       #'       #'  '#        
            ##       ##  #######   ##           ,######,      #####,   #    #        
            '#,     ,#'  ##    ##  '#,     ,#' ,#      #,     #,   #   #,  ,#        
             '#######'   ##     ##  '#######'  #'      '#     '####' # '####'        



                #########################################################
                #                        -***-                          #
                #          Department of theory and spectroscopy        #
                #                                                       #
                #                      Frank Neese                      #
                #                                                       #
                #     Directorship, Architecture, Infrastructure        #
                #                    SHARK, DRIVERS                     #
                #        Core code/Algorithms in most modules           #
                #                                                       #
                #        Max Planck Institute fuer Kohlenforschung      #
                #                Kaiser Wilhelm Platz 1                 #
                #                 D-45470 Muelheim/Ruhr                 #
                #                      Germany                          #
                #                                                       #
                #                  All rights reserved                  #
                #                        -***-                          #
                #########################################################


                         Program Version 6.0.1  -  RELEASE   -


 With contributions from (in alphabetic order):
[Max-Planck-Institut fuer Kohlenforschung]                               
  Daniel Aravena         : Magnetic Suceptibility                        
  Michael Atanasov       : Ab Initio Ligand Field Theory (pilot matlab implementation)
  Alexander A. Auer      : GIAO ZORA, VPT2 properties, NMR spectrum      
  Ute Becker             : All parallelization in ORCA, NUMFREQ, NUMCALC 
  Giovanni Bistoni       : ED, misc. LED, open-shell LED, HFLD           
  Martin Brehm           : Molecular dynamics                            
  Dmytro Bykov           : pre 5.0 version of the SCF Hessian            
  Marcos Casanova-Páez   : Triplet and SCS-CIS(D). UHF-(DLPNO)-IP/EA/STEOM-CCSD. UHF-CVS-IP/STEOM-CCSD   
  Vijay G. Chilkuri      : MRCI spin determinant printing, contributions to CSF-ICE 
  Pauline Colinet        : FMM embedding                                 
  Dipayan Datta          : RHF DLPNO-CCSD density                        
  Achintya Kumar Dutta   : EOM-CC, STEOM-CC                              
  Nicolas Foglia         : Exact transition moments, OPA infrastructure, MCD improvements    
  Dmitry Ganyushin       : Spin-Orbit,Spin-Spin,Magnetic field MRCI      
  Miquel Garcia-Rates    : C-PCM and meta-GGA Hessian, CCSD/C-PCM, Gaussian charge scheme 
  Tiago L. C. Gouveia    : GS-ROHF, GS-ROCIS                             
  Yang Guo               : DLPNO-NEVPT2, F12-NEVPT2, CIM, IAO-localization        
  Andreas Hansen         : Spin unrestricted coupled pair/coupled cluster methods 
  Ingolf Harden          : AUTO-CI MPn and infrastructure                
  Benjamin Helmich-Paris : MC-RPA, TRAH-(SCF,CASSCF), AVAS, COSX integrals, SCF dyn. polar. 
  Lee Huntington         : MR-EOM, pCC                                   
  Robert Izsak           : Overlap fitted RIJCOSX, COSX-SCS-MP3, EOM     
  Riya Kayal             : Wick's Theorem for AUTO-CI, AUTO-CI UHF-CCSDT 
  Emily Kempfer          : AUTO-CI, RHF CISDT and CCSDT                  
  Christian Kollmar      : KDIIS, OOCD, Brueckner-CCSD(T), CCSD density, CASPT2, CASPT2-K, improved NEVPT2 
  Axel Koslowski         : Symmetry handling                             
  Simone Kossmann        : meta-GGA functionals, TD-DFT gradient, OOMP2, (MP2 Hessian; deprecated post 5.0) 
  Lucas Lang             : DCDCAS                                        
  Marvin Lechner         : AUTO-CI (C++ implementation), FIC-MRCC        
  Spencer Leger          : CASSCF response                               
  Dagmar Lenk            : GEPOL surface, SMD, ORCA-2-JSON               
  Dimitrios Liakos       : Extrapolation schemes; Compound Job, initial MDCI parallelization 
  Dimitrios Manganas     : Further ROCIS development; embedding schemes. LFT, Crystal Embedding 
  Dimitrios Pantazis     : SARC Basis sets                               
  Anastasios Papadopoulos: AUTO-CI, single reference methods and gradients 
  Taras Petrenko         : pre 6.0 DFT Hessian and TD-DFT gradient, (ASA, deprecated), ECA, 1-Electron XAS/XES, NRVS 
  Peter Pinski           : DLPNO-MP2, DLPNO-MP2 Gradient                 
  Christoph Reimann      : Effective Core Potentials                     
  Marius Retegan         : Local ZFS, SOC                                
  Christoph Riplinger    : Optimizer, TS searches, QM/MM, DLPNO-CCSD(T), (RO)-DLPNO pert. Triples 
  Michael Roemelt        : Original ROCIS implementation                 
  Masaaki Saitow         : Open-shell DLPNO-CCSD energy and density      
  Barbara Sandhoefer     : DKH picture change effects                    
  Kantharuban Sivalingam : CASSCF convergence/infrastructure, NEVPT2 and variants, FIC-MRCI 
  Bernardo de Souza      : ESD, SOC TD-DFT                               
  Georgi L. Stoychev     : AutoAux, RI-MP2 NMR, DLPNO-MP2 response, X2C  
  Van Anh Tran           : RI-MP2 g-tensors                              
  Willem Van den Heuvel  : Paramagnetic NMR                              
  Zikuan Wang            : NOTCH, Electric field optimization            
  Frank Wennmohs         : Technical directorship and infrastructure     
  Hang Xu                : AUTO-CI-Response properties                   
                                                                         
[FACCTs GmbH]                                                            
  Markus Bursch, Miquel Garcia-Rates, Christoph Riplinger, Bernardo de Souza, Georgi L. Stoychev 
                                                                 
  APM, Basis sets (HGBS, AHGBS, def-TZVP (Ac-Lr), def2-XVPD (La-Lu)), CI-OPT, improved COSX, DLPNO-Multilevel,           
  DOCKER, DRACO, updates on ESD, GOAT, IRC, LR-CPCM, MBIS, meta-GGA TD-DFT gradient, ML-optimized integration grids, 
  MM, NACMEs, nearIR, NEB, NEB-TS, NL-DFT gradient (VV10), 2- and 3-layer-ONIOM, interface openCOSMO-RS, QMMM,   
  Crystal-QMMM, SF, symmetry and pop. for TD-DFT, r2SCAN hybrids, SOLVATOR                                   
                                                                         
[Other institutions]                                                     
  V. Asgeirsson          : NEB                                           
  Christoph Bannwarth    : sTDA-DFT, sTD-DFT, PBEh-3c, B97-3c, D3        
  Sebastian Ehlert       : rSCAN, r2SCAN, r2SCAN-3c, D4, dhf basis sets  
  Marvin Friede          : D4 for Fr, Ra, Ac-Lr                          
  Lars Goerigk           : TD-DFT with DH, B97 family of functionals     
  Stefan Grimme          : VdW corrections, initial TS optimization, DFT functionals, gCP, sTDA/sTD-DF 
  Waldemar Hujo          : DFT-NL                                        
  H. Jonsson             : NEB                                           
  Holger Kruse           : gCP                                           
  Marcel Mueller         : wB97X-3c, vDZP basis set                      
  Hagen Neugebauer       : wr2SCAN                                       
  Tobias Risthaus        : range-separated hybrid DFT                    
  Lukas Wittmann         : regularized MP2, r2SCAN double-hybrids, wr2SCAN        
                                                                         
We gratefully acknowledge several colleagues who have allowed us to      
interface, adapt or use parts of their codes:                            
  Ed Valeev, F. Pavosevic, A. Kumar             : LibInt (2-el integral package), F12 methods 
  Garnet Chan, S. Sharma, J. Yang, R. Olivares  : DMRG                   
  Ulf Ekstrom                                   : XCFun DFT Library      
  Mihaly Kallay                                 : mrcc  (arbitrary order and MRCC methods)
  Frank Weinhold                                : gennbo (NPA and NBO analysis)           
  Simon Mueller                                 : openCOSMO-RS                            
  Christopher J. Cramer and Donald G. Truhlar   : smd solvation model                     
  S Lehtola, MJT Oliveira, MAL Marques          : LibXC Library                           
  Liviu Ungur et al                             : ANISO software                          


 Your calculation uses the libint2 library for the computation of 2-el integrals
 For citations please refer to: http://libint.valeyev.net

 Your ORCA version has been built with support for libXC version: 6.2.2
 For citations please refer to: https://libxc.gitlab.io

 This ORCA versions uses:
   CBLAS   interface :  Fast vector & matrix operations
   LAPACKE interface :  Fast linear algebra routines
   SCALAPACK package :  Parallel linear algebra routines
   Shared memory     :  Shared parallel matrices
   BLAS/LAPACK       :  OpenBLAS 0.3.27  USE64BITINT DYNAMIC_ARCH NO_AFFINITY SkylakeX SINGLE_THREADED
        Core in use  :  SkylakeX
   Copyright (c) 2011-2014, The OpenBLAS Project


================================================================================

----- Orbital basis set information -----
Your calculation utilizes the basis: STO-3G
   H-Ne       : W. J. Hehre, R. F. Stewart and J. A. Pople, J. Chem. Phys. 2657 (1969).
   Na-Ar      : W. J. Hehre, R. Ditchfield, R. F. Stewart and J. A. Pople, J. Chem. Phys. 2769 (1970).
   K,Ca,Ga-Kr : W. J. Pietro, B. A. Levy, W. J. Hehre and R. F. Stewart, J. Am. Chem. Soc. 19, 2225 (1980).
   Sc-Zn,Y-Cd : W. J. Pietro and W. J. Hehre, J. Comp. Chem. 4, 241 (1983).

================================================================================
                                        WARNINGS
                       Please study these warnings very carefully!
================================================================================


================================================================================
                                       INPUT FILE
================================================================================
NAME = Hidrogen_CASCI_2.inp
|  1> ! CASSCF STO-3G 
|  2> %pal
|  3>   nprocs 1
|  4> end
|  5> 
|  6> %casscf
|  7>   nel     2
|  8>   norb    2
|  9>   maxiter 0
| 10> end
| 11> 
| 12> %paras
| 13>   R = 3.00, 5.80, 16
| 14> end
| 15> 
| 16> * xyz 0 1
| 17> H  0.0  0.0  0.0
| 18> H  0.0  0.0  {R}
| 19> **                         ****END OF INPUT****
================================================================================

                       ******************************
                       * Parameter Scan Calculation *
                       ******************************

Trajectory settings:
    -> SCF surface will be mapped

There are 1 parameter(s) to be scanned
             R: range=   3.00000000 ..   5.80000000  steps=   16
There will be   16 energy evaluations


         *************************************************************
                                TRAJECTORY STEP   1
                  R  :   3.00000000
         *************************************************************
---------------------------------
CARTESIAN COORDINATES (ANGSTROEM)
---------------------------------
  H      0.000000    0.000000    0.000000
  H      0.000000    0.000000    3.000000

----------------------------
CARTESIAN COORDINATES (A.U.)
----------------------------
  NO LB      ZA    FRAG     MASS         X           Y           Z
   0 H     1.0000    0     1.008    0.000000    0.000000    0.000000
   1 H     1.0000    0     1.008    0.000000    0.000000    5.669178

--------------------------------
INTERNAL COORDINATES (ANGSTROEM)
--------------------------------
 H      0   0   0     0.000000000000     0.00000000     0.00000000
 H      1   0   0     3.000000000000     0.00000000     0.00000000

---------------------------
INTERNAL COORDINATES (A.U.)
---------------------------
 H      0   0   0     0.000000000000     0.00000000     0.00000000
 H      1   0   0     5.669178401764     0.00000000     0.00000000

---------------------
BASIS SET INFORMATION
---------------------
There are 1 groups of distinct atoms

 Group   1 Type H   : 3s contracted to 1s pattern {3}

Atom   0H    basis set group =>   1
Atom   1H    basis set group =>   1
------------------------------------------------------------------------------
                             ORCA STARTUP CALCULATIONS
------------------------------------------------------------------------------
------------------------------------------------------------------------------
                   ___                                                        
                  /   \      - P O W E R E D   B Y -                         
                 /     \                                                     
                 |  |  |   _    _      __       _____    __    __             
                 |  |  |  | |  | |    /  \     |  _  \  |  |  /  |          
                  \  \/   | |  | |   /    \    | | | |  |  | /  /          
                 / \  \   | |__| |  /  /\  \   | |_| |  |  |/  /          
                |  |  |   |  __  | /  /__\  \  |    /   |      \           
                |  |  |   | |  | | |   __   |  |    \   |  |\   \          
                \     /   | |  | | |  |  |  |  | |\  \  |  | \   \       
                 \___/    |_|  |_| |__|  |__|  |_| \__\ |__|  \__/        
                                                                              
                      - O R C A' S   B I G   F R I E N D -                    
                                      &                                       
                       - I N T E G R A L  F E E D E R -                       
                                                                              
 v1 FN, 2020, v2 2021, v3 2022-2024                                           
------------------------------------------------------------------------------


----------------------
SHARK INTEGRAL PACKAGE
----------------------

Number of atoms                             ...      2
Number of basis functions                   ...      2
Number of shells                            ...      2
Maximum angular momentum                    ...      0
Integral batch strategy                     ... SHARK/LIBINT Hybrid
RI-J (if used) integral strategy            ... SPLIT-RIJ (Revised 2003 algorithm where possible)
Printlevel                                  ...      1
Contraction scheme used                     ... PARTIAL GENERAL contraction
Prescreening option                         ... SCHWARTZ
   Thresh                                   ... 1.000e-10
   Tcut                                     ... 1.000e-11
   Tpresel                                  ... 1.000e-11 
Coulomb Range Separation                    ... NOT USED
Exchange Range Separation                   ... NOT USED
Multipole approximations                    ... NOT USED
Finite Nucleus Model                        ... NOT USED
CABS basis                                  ... NOT available
Auxiliary Coulomb fitting basis             ... NOT available
Auxiliary J/K fitting basis                 ... NOT available
Auxiliary Correlation fitting basis         ... NOT available
Auxiliary 'external' fitting basis          ... NOT available

Checking pre-screening integrals            ... done (  0.0 sec) Dimension = 2
Save PGC pre-screening integrals            ... done (  0.0 sec) Dimension = 2
Calculate PGC overlap integrals             ... done (  0.0 sec) Dimension = 2
Calculating pre-screening integrals (ORCA)  ... done (  0.0 sec) Dimension = 2
Check shell pair data                       ... done (  0.0 sec)
Shell pair information
Shell pair cut-off parameter TPreSel        ...   1.0e-11
Total number of shell pairs                 ...         3
Shell pairs after pre-screening             ...         3
Total number of primitive shell pairs       ...        27
Primitive shell pairs kept                  ...        26
          la=0 lb=0:      3 shell pairs

Calculating one electron integrals          ... done (  0.0 sec)
Calculating Nuclear repulsion               ... done (  0.0 sec) ENN=      0.176392402767 Eh

Diagonalization of the overlap matrix:
Smallest eigenvalue                        ... 9.817e-01
Time for diagonalization                   ...    0.000 sec
Threshold for overlap eigenvalues          ... 1.000e-07
Number of eigenvalues below threshold      ... 0
Time for construction of square roots      ...    0.001 sec
Total time needed                          ...    0.001 sec

-------------------
DFT GRID GENERATION
-------------------

General Integration Accuracy     IntAcc      ... 4.388
Radial Grid Type                 RadialGrid  ... OptM3 with GC (2021)
Angular Grid (max. ang.)         AngularGrid ... 4 (Lebedev-302)
Angular grid pruning method      GridPruning ... 4 (adaptive)
Weight generation scheme         WeightScheme... mBecke (2022)
Basis function cutoff            BFCut       ... 1.0000e-10
Integration weight cutoff        WCut        ... 1.0000e-14
Partially contracted basis set               ... off
Rotationally invariant grid construction     ... off
Angular grids for H and He will be reduced by one unit

Total number of grid points                  ...     6664
Total number of batches                      ...      106
Average number of points per batch           ...       62
Average number of grid points per atom       ...     3332

---------------------
SHARK GRID GENERATION
---------------------

General Integration Accuracy     IntAcc      ... 4.388
Radial Grid Type                 RadialGrid  ... OptM3 with GC (2021)
Angular Grid (max. ang.)         AngularGrid ... 4 (Lebedev-302)
Angular grid pruning method      GridPruning ... 4 (adaptive)
Weight generation scheme         WeightScheme... mBecke (2022)
Basis function cutoff            BFCut       ... 1.0000e-10
Integration weight cutoff        WCut        ... 1.0000e-14
Partially contracted basis set               ... off
Rotationally invariant grid construction     ... off
Angular grids for H and He will be reduced by one unit

Total number of grid points                  ...     6664
Total number of batches                      ...      106
Average number of points per batch           ...       62
Average number of grid points per atom       ...     3332
Initializing property integral containers    ... done (  0.0 sec)

SHARK setup successfully completed in   0.1 seconds

Maximum memory used throughout the entire STARTUP-calculation: 2.7 MB
-------------------------------------------------------------------------------
                                 ORCA GUESS
                   Start orbitals & Density for SCF / CASSCF
-------------------------------------------------------------------------------

------------
SCF SETTINGS
------------
Hamiltonian:
 Ab initio Hamiltonian  Method          .... Hartree-Fock(GTOs)


General Settings:
 Integral files         IntName         .... Hidrogen_CASCI_2
 Hartree-Fock type      HFTyp           .... CASSCF
 Total Charge           Charge          ....    0
 Multiplicity           Mult            ....    1
 Number of Electrons    NEL             ....    2
 Basis Dimension        Dim             ....    2
 Nuclear Repulsion      ENuc            ....      0.1763924028 Eh

------------------------------
INITIAL GUESS: MODEL POTENTIAL
------------------------------
Loading Hartree-Fock densities                     ... done
Calculating cut-offs                               ... done
Initializing the effective Hamiltonian             ... done
Setting up the integral package (SHARK)            ... done
Starting the Coulomb interaction                   ... done (   0.0 sec)
Making the grid                                    ... done (   0.0 sec)
Mapping shells                                     ... done
Starting the XC term evaluation                    ... done (   0.0 sec)
Transforming the Hamiltonian                       ... done (   0.0 sec)
Diagonalizing the Hamiltonian                      ... done (   0.0 sec)
Back transforming the eigenvectors                 ... done (   0.0 sec)
Now organizing SCF variables                       ... done
                      ------------------
                      INITIAL GUESS DONE (   0.0 sec)
                      ------------------
             **** ENERGY FILE WAS UPDATED (Hidrogen_CASCI_2.en.tmp) ****
Finished Guess after   0.0 sec
Maximum memory used throughout the entire GUESS-calculation: 1.2 MB
-------------------------------------------------------------------------------
                              ORCA-CASSCF
-------------------------------------------------------------------------------

Building the CAS space              ... done (3 configurations for Mult=1)

SYSTEM-SPECIFIC SETTINGS:
Number of active electrons          ...    2
Number of active orbitals           ...    2
Total number of electrons           ...    2
Total number of orbitals            ...    2

Determined orbital ranges:
   Internal       0 -   -1 (   0 orbitals)
   Active         0 -    1 (   2 orbitals)
   External       2 -    1 (   0 orbitals)
Number of rotation parameters      ...      0

WARNING: Performing a full CI. Skipping orbital update and alike.
         The calculation might take substantial time!

CI-STEP:
CI strategy                         ... General CI
Number of multiplicity blocks       ...    1
BLOCK  0 WEIGHT=   1.0000
  Multiplicity                      ...    1
  #(Configurations)                 ...    3
  #(CSFs)                           ...    3
  #(Roots)                          ...    1
    ROOT=0 WEIGHT=    1.000000

  PrintLevel                        ...    1
  N(GuessMat)                       ...      2048
  MaxDim(CI)                        ...        10
  MaxIter(CI)                       ...        64
  Energy Tolerance CI               ...  1.00e-08
  Residual Tolerance CI             ...  1.00e-08
  Shift(CI)                         ...  1.00e-04

INTEGRAL-TRANSFORMATION-STEP:
  Algorithm                         ... EXACT

ORBITAL-IMPROVEMENT-STEP:
  MaxMacroIter 1 detected                >>> CAS-CI. Check your FINAL ORBITAL options!

SCF-SETTINGS:
  Incremental                       ... on
  RIJCOSX approximation             ... off
  RI-JK approximation               ... off
  AO integral handling              ... DIRECT
  Integral Neglect Thresh           ...  1.00e-10
  Primitive cutoff TCut             ...  1.00e-11
  Energy convergence tolerance      ...  1.00e-07
  Orbital gradient convergence      ...  1.00e-03
  Max. number of iterations         ...         1  


FINAL ORBITALS:
  Active   Orbitals                 ... unchanged 
  Internal Orbitals                 ... canonical 
  External Orbitals                 ... canonical 

------------------
CAS-SCF ITERATIONS
------------------


MACRO-ITERATION   1: 
   --- Inactive Energy E0 = 0.17639240 Eh
   --- All densities will be recomputed
CI-ITERATION   0: 
    -0.933631845   0.000000000000 (    0.00)
   CI-PROBLEM SOLVED
   DENSITIES MADE

                 <<<<<<<<<<<<<<<<<<INITIAL CI STATE CHECK>>>>>>>>>>>>>>>>>>

BLOCK  0 MULT= 1 NROOTS= 1 
ROOT   0:  E=      -0.9336318445 Eh
      0.53744 [     0]: 20
      0.46256 [     2]: 02

                 <<<<<<<<<<<<<<<<<<INITIAL CI STATE CHECK>>>>>>>>>>>>>>>>>>

   E(CAS)=    -0.933631845 Eh DE=    0.000000e+00
   N(occ)=  1.07489 0.92511
--------------
CASSCF RESULTS
--------------

Final CASSCF energy       : -0.933631845 Eh     -25.4054 eV

----------------
ORBITAL ENERGIES
----------------

  NO   OCC          E(Eh)            E(eV) 
   0   1.0749      -0.097083        -2.6418 
   1   0.9251      -0.061422        -1.6714 


---------------------------------------------
CAS-SCF STATES FOR BLOCK  0 MULT= 1 NROOTS= 1
---------------------------------------------

ROOT   0:  E=      -0.9336318445 Eh
      0.53744 [     0]: 20
      0.46256 [     2]: 02


--------------
DENSITY MATRIX
--------------

                  0          1    
      0       1.074888  -0.000000
      1      -0.000000   0.925112
Trace of the electron density:  2.000000

-----------------
ENERGY COMPONENTS
-----------------

One electron energy          :     -1.286978117 Eh         -35.0205 eV
Two electron energy          :      0.176953869 Eh           4.8152 eV
Nuclear repulsion energy     :      0.176392403 Eh           4.7999 eV
                               ----------------
                                   -0.933631845

Kinetic energy               :      1.517739578 Eh          41.2998 eV
Potential energy             :     -2.451371423 Eh         -66.7052 eV
Virial ratio                 :     -1.615146273 
                               ----------------
                                   -0.933631845

Core energy                  :      0.176392403 Eh        4.7999 eV


----------------------------
LOEWDIN ORBITAL-COMPOSITIONS
----------------------------

                      0         1   
                  -0.09708  -0.06142
                   1.07489   0.92511
                  --------  --------
 0 H  s              50.0      50.0
 1 H  s              50.0      50.0

----------------------------
LOEWDIN REDUCED ACTIVE MOs  
----------------------------

                      0         1   
                  -0.09708  -0.06142
                   1.07489   0.92511
                  --------  --------
 0 H  s              50.0      50.0
 1 H  s              50.0      50.0
------------------------------------------------------------------------------
                           ORCA POPULATION ANALYSIS
------------------------------------------------------------------------------
Input electron density              ... Hidrogen_CASCI_2.scfp
BaseName (.gbw .S,...)              ... Hidrogen_CASCI_2

                    ********************************
                    * MULLIKEN POPULATION ANALYSIS *
                    ********************************

-----------------------
MULLIKEN ATOMIC CHARGES
-----------------------
   0 H :    0.000000
   1 H :    0.000000
Sum of atomic charges:    0.0000000

--------------------------------
MULLIKEN REDUCED ORBITAL CHARGES
--------------------------------
  0 H s       :     1.000000  s :     1.000000
  1 H s       :     1.000000  s :     1.000000


                     *******************************
                     * LOEWDIN POPULATION ANALYSIS *
                     *******************************

----------------------
LOEWDIN ATOMIC CHARGES
----------------------
   0 H :    0.000000
   1 H :    0.000000

-------------------------------
LOEWDIN REDUCED ORBITAL CHARGES
-------------------------------
  0 H s       :     1.000000  s :     1.000000
  1 H s       :     1.000000  s :     1.000000


                      *****************************
                      * MAYER POPULATION ANALYSIS *
                      *****************************

  NA   - Mulliken gross atomic population
  ZA   - Total nuclear charge
  QA   - Mulliken gross atomic charge
  VA   - Mayer's total valence
  BVA  - Mayer's bonded valence
  FA   - Mayer's free valence

  ATOM       NA         ZA         QA         VA         BVA        FA
  0 H      1.0000     1.0000     0.0000     1.0000     0.0056     0.9944
  1 H      1.0000     1.0000     0.0000     1.0000     0.0056     0.9944

  Mayer bond orders larger than 0.100000
  => No bond orders to print


-------------------------------------------------------------
 Forming the transition density       ... done in 0.0 sec
-------------------------------------------------------------
Memory for address arrays  		      ... done
Make address arrays			      ... done
Memory for buffers 			      ... done
Setting up spin-function prototypes	      ... (MAXOPEN=2) 0 2 4 done
Trivial cases - DOMO's			      ... done (  0.0 MB)
Number of open shells			    ...  0
domo->virtual excitations			... done (  0.0 MB)
domo->somo excitations				... done (  0.0 MB)
somo->virtual excitations			... done (  0.0 MB)
somo->somo excitations				... done (  0.0 MB)
Number of open shells			    ...  2
domo->virtual excitations			... done (  0.0 MB)
domo->somo excitations				... done (  0.0 MB)
somo->virtual excitations			... done (  0.0 MB)
somo->somo excitations				... done (  0.0 MB)
Coupling container construction done

--------------
CASSCF TIMINGS
--------------

Total time                       ...        0.1 sec
Sum of individual times          ...        0.0 sec ( 45.1%)

Calculation of AO operators
   F(Core) operator              ...        0.0 sec (  0.4%)
   G(Act) operator               ...        0.0 sec (  0.2%)
Calculation of MO transformed quantities
   J(MO) operators               ...        0.0 sec ( 26.5%)
   AO->MO one electron integrals ...        0.0 sec (  0.0%)
Configuration interaction steps
   CI-setup phase                ...        0.0 sec ( 10.8%)
   CI-solution phase             ...        0.0 sec (  6.7%)
   Generation of densities       ...        0.0 sec (  0.1%)
Orbital improvement steps
CPCM steps
   Total CPCM time               ...        0.0 sec (  0.1%)
Properties                       ...        0.0 sec (  0.4%)
   SOC integral calculation      ...        0.0 sec (  0.0%)
   SSC RMEs (incl. integrals)    ...        0.0 sec (  0.0%)
   SOC RMEs                      ...        0.0 sec (  0.0%)

Maximum memory used throughout the entire CASSCF-calculation: 29.6 MB

------------------------------------------------------------------------------
                         ORCA PROPERTY INTEGRAL CALCULATIONS
------------------------------------------------------------------------------

GBWName                                   ... Hidrogen_CASCI_2.gbw
Number of atoms                           ...      2
Number of basis functions                 ...      2
Max core memory                           ...   1024 MB

Dipole integrals                          ... YES
Quadrupole integrals                      ...  NO
Linear momentum integrals                 ...  NO
Angular momentum integrals                ... YES
Higher moments length integrals           ...  NO
Higher moments velocity integrals         ...  NO
Kinetic energy integrals                  ...  NO
GIAO right hand sides                     ...  NO
GIAO dipole derivative integrals          ...  NO
SOC integrals                             ...  NO
EPR diamagnetic integrals (GIAO)          ...  NO
EPR gauge integrals                       ...  NO
Field gradient integrals                  ...  NO (   0 nuclei)
Spin-dipole/Fermi contact integrals       ...  NO (   0 nuclei)
Contact density integrals                 ...  NO (   0 nuclei)
Nucleus-orbit integrals                   ...  NO (   0 nuclei)
Geometric perturbations                   ...  NO (   2 nuclei)

Choice of electric origin   ... Center of mass
Position of electric origin ... (  0.0000,  0.0000,  2.8346) 
Choice of magnetic origin   ... GIAO
Position of magnetic origin ... (  0.0000,  0.0000,  0.0000) 

Calculating integrals                     ... Electric Dipole (Length)     done (  0.0 sec)
Calculating integrals                     ... Angular Momentum  (ElOri)    done (  0.0 sec)

Property integrals calculated in   0.0 sec

Maximum memory used throughout the entire PROPINT-calculation: 1.2 MB
-------------------------------------------------------------------------------
                              ORCA-CASSCF
-------------------------------------------------------------------------------

Setting up the integral package     ... done


==========================================
CASSCF UV, CD spectra and dipole moments
==========================================

--------------
CASSCF TIMINGS
--------------

Total time                       ...        0.0 sec
Sum of individual times          ...        0.0 sec ( 98.4%)

Calculation of AO operators
Calculation of MO transformed quantities
Configuration interaction steps
   CI-setup phase                ...        0.0 sec ( 98.4%)
Orbital improvement steps
Properties                       ...        0.0 sec (  0.0%)
   SOC integral calculation      ...        0.0 sec (  0.0%)
   SSC RMEs (incl. integrals)    ...        0.0 sec (  0.0%)
   SOC RMEs                      ...        0.0 sec (  0.0%)

Maximum memory used throughout the entire CASSCF-calculation: 23.5 MB

-------------------------   --------------------
FINAL SINGLE POINT ENERGY        -0.933631844530
-------------------------   --------------------

Storing actual gbw-file in Hidrogen_CASCI_2.001.gbw ... done

------------------------------------------------------------------------------
                              ORCA PROPERTY CALCULATIONS
------------------------------------------------------------------------------

GBWName                                 ... Hidrogen_CASCI_2.gbw
Number of atoms                         ...      2
Number of basis functions               ...      2
Max core memory                         ...   1024 MB

Electric properties:
Dipole moment                           ... YES
Quadrupole moment                       ...  NO
Static polarizability (Dipole/Dipole)   ...  NO
Static polarizability (Dipole/Quad.)    ...  NO
Static polarizability (Quad./Quad.)     ...  NO
Static polarizability (Velocity)        ...  NO

Atomic electric properties:
Dipole moment                           ...  NO
Quadrupole moment                       ...  NO
Static polarizability                   ...  NO

Choice of electric origin               ... Center of mass
Position of electric origin             ...     0.000000     0.000000     2.834589

General magnetic properties:
Magnetizability                         ...  NO

EPR properties:
g-Tensor (aka g-matrix)                 ...  NO
Zero-Field splitting spin-orbit         ...  NO
Zero-field splitting spin-spin          ...  NO
Hyperfine couplings                     ...  NO (   0 nuclei)
Quadrupole couplings                    ...  NO (   0 nuclei)
Contact density                         ...  NO (   0 nuclei)

NMR properties:
Chemical shifts                         ...  NO (   0 nuclei)
Spin-rotation constants                 ...  NO (   0 nuclei)
Spin-spin couplings                     ...  NO (   0 nuclei,    0 pairs)

Choice of magnetic origin               ... GIAO
Position of magnetic origin             ...     0.000000     0.000000     0.000000

Properties with geometric perturbations:
SCF Hessian                             ...  NO
IR spectrum                             ...  NO
VCD spectrum                            ...  NO
X-ray spectroscopy properties:
SCF XES/XAS/RIXS spectra                ...  NO


-------------
DIPOLE MOMENT
-------------

Method             : CASSCF
Type of density    : Electron Density
Level              : Relaxed density
State              :   0
Multiplicity       :   1
Irrep              :   0
Energy             :    -0.9336318445303181 Eh
Relativity type    : 
Basis              : AO
                                X                 Y                 Z
Electronic contribution:     -0.000000000      -0.000000000       0.000000000
Nuclear contribution   :      0.000000000       0.000000000      -0.000000000
                        -----------------------------------------
Total Dipole Moment    :      0.000000000       0.000000000       0.000000000
                        -----------------------------------------
Magnitude (a.u.)       :      0.000000000
Magnitude (Debye)      :      0.000000000



--------------------
Rotational spectrum 
--------------------
 
Rotational constants in cm-1:             0.000000             3.716412             3.716412 
Rotational constants in MHz :             0.000000        111415.229208        111415.229208 

Dipole components along the rotational axes: 
x,y,z [a.u.] :     0.000000     0.000000     0.000000 
x,y,z [Debye]:     0.000000     0.000000     0.000000 

 

Dipole moment calculation done in   0.0 sec 

Maximum memory used throughout the entire PROP-calculation: 0.6 MB

         *************************************************************
                                TRAJECTORY STEP   2
                  R  :   3.18666667
         *************************************************************
---------------------------------
CARTESIAN COORDINATES (ANGSTROEM)
---------------------------------
  H      0.000000    0.000000    0.000000
  H      0.000000    0.000000    3.186667

----------------------------
CARTESIAN COORDINATES (A.U.)
----------------------------
  NO LB      ZA    FRAG     MASS         X           Y           Z
   0 H     1.0000    0     1.008    0.000000    0.000000    0.000000
   1 H     1.0000    0     1.008    0.000000    0.000000    6.021927

--------------------------------
INTERNAL COORDINATES (ANGSTROEM)
--------------------------------
 H      0   0   0     0.000000000000     0.00000000     0.00000000
 H      1   0   0     3.186666666667     0.00000000     0.00000000

---------------------------
INTERNAL COORDINATES (A.U.)
---------------------------
 H      0   0   0     0.000000000000     0.00000000     0.00000000
 H      1   0   0     6.021927280096     0.00000000     0.00000000

------------------------------------------------------------------------------
                   ___                                                        
                  /   \      - P O W E R E D   B Y -                         
                 /     \                                                     
                 |  |  |   _    _      __       _____    __    __             
                 |  |  |  | |  | |    /  \     |  _  \  |  |  /  |          
                  \  \/   | |  | |   /    \    | | | |  |  | /  /          
                 / \  \   | |__| |  /  /\  \   | |_| |  |  |/  /          
                |  |  |   |  __  | /  /__\  \  |    /   |      \           
                |  |  |   | |  | | |   __   |  |    \   |  |\   \          
                \     /   | |  | | |  |  |  |  | |\  \  |  | \   \       
                 \___/    |_|  |_| |__|  |__|  |_| \__\ |__|  \__/        
                                                                              
                      - O R C A' S   B I G   F R I E N D -                    
                                      &                                       
                       - I N T E G R A L  F E E D E R -                       
                                                                              
 v1 FN, 2020, v2 2021, v3 2022-2024                                           
------------------------------------------------------------------------------


----------------------
SHARK INTEGRAL PACKAGE
----------------------

Number of atoms                             ...      2
Number of basis functions                   ...      2
Number of shells                            ...      2
Maximum angular momentum                    ...      0
Integral batch strategy                     ... SHARK/LIBINT Hybrid
RI-J (if used) integral strategy            ... SPLIT-RIJ (Revised 2003 algorithm where possible)
Printlevel                                  ...      1
Contraction scheme used                     ... PARTIAL GENERAL contraction
Prescreening option                         ... SCHWARTZ
   Thresh                                   ... 1.000e-10
   Tcut                                     ... 1.000e-11
   Tpresel                                  ... 1.000e-11 
Coulomb Range Separation                    ... NOT USED
Exchange Range Separation                   ... NOT USED
Multipole approximations                    ... NOT USED
Finite Nucleus Model                        ... NOT USED
CABS basis                                  ... NOT available
Auxiliary Coulomb fitting basis             ... NOT available
Auxiliary J/K fitting basis                 ... NOT available
Auxiliary Correlation fitting basis         ... NOT available
Auxiliary 'external' fitting basis          ... NOT available

Checking pre-screening integrals            ... done (  0.0 sec) Dimension = 2
Save PGC pre-screening integrals            ... done (  0.0 sec) Dimension = 2
Calculate PGC overlap integrals             ... done (  0.0 sec) Dimension = 2
Calculating pre-screening integrals (ORCA)  ... done (  0.0 sec) Dimension = 2
Check shell pair data                       ... done (  0.0 sec)
Shell pair information
Shell pair cut-off parameter TPreSel        ...   1.0e-11
Total number of shell pairs                 ...         3
Shell pairs after pre-screening             ...         3
Total number of primitive shell pairs       ...        27
Primitive shell pairs kept                  ...        26
          la=0 lb=0:      3 shell pairs

Calculating one electron integrals          ... done (  0.0 sec)
Calculating Nuclear repulsion               ... done (  0.0 sec) ENN=      0.166059793400 Eh

Diagonalization of the overlap matrix:
Smallest eigenvalue                        ... 9.878e-01
Time for diagonalization                   ...    0.000 sec
Threshold for overlap eigenvalues          ... 1.000e-07
Number of eigenvalues below threshold      ... 0
Time for construction of square roots      ...    0.000 sec
Total time needed                          ...    0.000 sec

-------------------
DFT GRID GENERATION
-------------------

General Integration Accuracy     IntAcc      ... 4.388
Radial Grid Type                 RadialGrid  ... OptM3 with GC (2021)
Angular Grid (max. ang.)         AngularGrid ... 4 (Lebedev-302)
Angular grid pruning method      GridPruning ... 4 (adaptive)
Weight generation scheme         WeightScheme... mBecke (2022)
Basis function cutoff            BFCut       ... 1.0000e-10
Integration weight cutoff        WCut        ... 1.0000e-14
Partially contracted basis set               ... off
Rotationally invariant grid construction     ... off
Angular grids for H and He will be reduced by one unit

Total number of grid points                  ...     6666
Total number of batches                      ...      106
Average number of points per batch           ...       62
Average number of grid points per atom       ...     3333

---------------------
SHARK GRID GENERATION
---------------------

General Integration Accuracy     IntAcc      ... 4.388
Radial Grid Type                 RadialGrid  ... OptM3 with GC (2021)
Angular Grid (max. ang.)         AngularGrid ... 4 (Lebedev-302)
Angular grid pruning method      GridPruning ... 4 (adaptive)
Weight generation scheme         WeightScheme... mBecke (2022)
Basis function cutoff            BFCut       ... 1.0000e-10
Integration weight cutoff        WCut        ... 1.0000e-14
Partially contracted basis set               ... off
Rotationally invariant grid construction     ... off
Angular grids for H and He will be reduced by one unit

Total number of grid points                  ...     6666
Total number of batches                      ...      106
Average number of points per batch           ...       62
Average number of grid points per atom       ...     3333
Initializing property integral containers    ... done (  0.0 sec)

SHARK setup successfully completed in   0.1 seconds

Maximum memory used throughout the entire STARTUP-calculation: 2.7 MB
Occupation numbers will be reassigned to an Aufbau configuration
             **** ENERGY FILE WAS UPDATED (Hidrogen_CASCI_2.en.tmp) ****
Finished Guess after   0.0 sec
Maximum memory used throughout the entire GUESS-calculation: 1.1 MB
-------------------------------------------------------------------------------
                              ORCA-CASSCF
-------------------------------------------------------------------------------

Building the CAS space              ... done (3 configurations for Mult=1)

SYSTEM-SPECIFIC SETTINGS:
Number of active electrons          ...    2
Number of active orbitals           ...    2
Total number of electrons           ...    2
Total number of orbitals            ...    2

Determined orbital ranges:
   Internal       0 -   -1 (   0 orbitals)
   Active         0 -    1 (   2 orbitals)
   External       2 -    1 (   0 orbitals)
Number of rotation parameters      ...      0

WARNING: Performing a full CI. Skipping orbital update and alike.
         The calculation might take substantial time!

CI-STEP:
CI strategy                         ... General CI
Number of multiplicity blocks       ...    1
BLOCK  0 WEIGHT=   1.0000
  Multiplicity                      ...    1
  #(Configurations)                 ...    3
  #(CSFs)                           ...    3
  #(Roots)                          ...    1
    ROOT=0 WEIGHT=    1.000000

  PrintLevel                        ...    1
  N(GuessMat)                       ...      2048
  MaxDim(CI)                        ...        10
  MaxIter(CI)                       ...        64
  Energy Tolerance CI               ...  1.00e-08
  Residual Tolerance CI             ...  1.00e-08
  Shift(CI)                         ...  1.00e-04

INTEGRAL-TRANSFORMATION-STEP:
  Algorithm                         ... EXACT

ORBITAL-IMPROVEMENT-STEP:
  MaxMacroIter 1 detected                >>> CAS-CI. Check your FINAL ORBITAL options!

SCF-SETTINGS:
  Incremental                       ... on
  RIJCOSX approximation             ... off
  RI-JK approximation               ... off
  AO integral handling              ... DIRECT
  Integral Neglect Thresh           ...  1.00e-10
  Primitive cutoff TCut             ...  1.00e-11
  Energy convergence tolerance      ...  1.00e-07
  Orbital gradient convergence      ...  1.00e-03
  Max. number of iterations         ...         1  


FINAL ORBITALS:
  Active   Orbitals                 ... unchanged 
  Internal Orbitals                 ... canonical 
  External Orbitals                 ... canonical 

------------------
CAS-SCF ITERATIONS
------------------


MACRO-ITERATION   1: 
   --- Inactive Energy E0 = 0.16605979 Eh
   --- All densities will be recomputed
CI-ITERATION   0: 
    -0.933391589   0.000000000000 (    0.00)
   CI-PROBLEM SOLVED
   DENSITIES MADE

                 <<<<<<<<<<<<<<<<<<INITIAL CI STATE CHECK>>>>>>>>>>>>>>>>>>

BLOCK  0 MULT= 1 NROOTS= 1 
ROOT   0:  E=      -0.9333915886 Eh
      0.52586 [     0]: 20
      0.47414 [     2]: 02

                 <<<<<<<<<<<<<<<<<<INITIAL CI STATE CHECK>>>>>>>>>>>>>>>>>>

   E(CAS)=    -0.933391589 Eh DE=    0.000000e+00
   N(occ)=  1.05173 0.94827
--------------
CASSCF RESULTS
--------------

Final CASSCF energy       : -0.933391589 Eh     -25.3989 eV


---------------------------------------------
CAS-SCF STATES FOR BLOCK  0 MULT= 1 NROOTS= 1
---------------------------------------------

ROOT   0:  E=      -0.9333915886 Eh
      0.52586 [     0]: 20
      0.47414 [     2]: 02


--------------
DENSITY MATRIX
--------------

                  0          1    
      0       1.051729  -0.000000
      1      -0.000000   0.948271
Trace of the electron density:  2.000000

-----------------
ENERGY COMPONENTS
-----------------

One electron energy          :     -1.265780151 Eh         -34.4436 eV
Two electron energy          :      0.166328769 Eh           4.5260 eV
Nuclear repulsion energy     :      0.166059793 Eh           4.5187 eV
                               ----------------
                                   -0.933391589

Kinetic energy               :      1.518924599 Eh          41.3320 eV
Potential energy             :     -2.452316188 Eh         -66.7309 eV
Virial ratio                 :     -1.614508178 
                               ----------------
                                   -0.933391589

Core energy                  :      0.166059793 Eh        4.5187 eV


----------------------------
LOEWDIN REDUCED ACTIVE MOs  
----------------------------

                      0         1   
                  -0.09144  -0.06710
                   1.05173   0.94827
                  --------  --------
 0 H  s              50.0      50.0
 1 H  s              50.0      50.0

-------------------------------------------------------------
 Forming the transition density       ... done in 0.0 sec
-------------------------------------------------------------
Memory for address arrays  		      ... done
Make address arrays			      ... done
Memory for buffers 			      ... done
Setting up spin-function prototypes	      ... (MAXOPEN=2) 0 2 4 done
Trivial cases - DOMO's			      ... done (  0.0 MB)
Number of open shells			    ...  0
domo->virtual excitations			... done (  0.0 MB)
domo->somo excitations				... done (  0.0 MB)
somo->virtual excitations			... done (  0.0 MB)
somo->somo excitations				... done (  0.0 MB)
Number of open shells			    ...  2
domo->virtual excitations			... done (  0.0 MB)
domo->somo excitations				... done (  0.0 MB)
somo->virtual excitations			... done (  0.0 MB)
somo->somo excitations				... done (  0.0 MB)
Coupling container construction done

--------------
CASSCF TIMINGS
--------------

Total time                       ...        0.0 sec
Sum of individual times          ...        0.0 sec ( 56.0%)

Calculation of AO operators
   F(Core) operator              ...        0.0 sec (  0.6%)
   G(Act) operator               ...        0.0 sec (  0.3%)
Calculation of MO transformed quantities
   J(MO) operators               ...        0.0 sec ( 43.8%)
   AO->MO one electron integrals ...        0.0 sec (  0.1%)
Configuration interaction steps
   CI-setup phase                ...        0.0 sec (  4.0%)
   CI-solution phase             ...        0.0 sec (  6.4%)
   Generation of densities       ...        0.0 sec (  0.1%)
Orbital improvement steps
CPCM steps
   Total CPCM time               ...        0.0 sec (  0.2%)
Properties                       ...        0.0 sec (  0.6%)
   SOC integral calculation      ...        0.0 sec (  0.0%)
   SSC RMEs (incl. integrals)    ...        0.0 sec (  0.0%)
   SOC RMEs                      ...        0.0 sec (  0.0%)

Maximum memory used throughout the entire CASSCF-calculation: 29.6 MB

------------------------------------------------------------------------------
                         ORCA PROPERTY INTEGRAL CALCULATIONS
------------------------------------------------------------------------------

GBWName                                   ... Hidrogen_CASCI_2.gbw
Number of atoms                           ...      2
Number of basis functions                 ...      2
Max core memory                           ...   1024 MB

Dipole integrals                          ... YES
Quadrupole integrals                      ...  NO
Linear momentum integrals                 ...  NO
Angular momentum integrals                ... YES
Higher moments length integrals           ...  NO
Higher moments velocity integrals         ...  NO
Kinetic energy integrals                  ...  NO
GIAO right hand sides                     ...  NO
GIAO dipole derivative integrals          ...  NO
SOC integrals                             ...  NO
EPR diamagnetic integrals (GIAO)          ...  NO
EPR gauge integrals                       ...  NO
Field gradient integrals                  ...  NO (   0 nuclei)
Spin-dipole/Fermi contact integrals       ...  NO (   0 nuclei)
Contact density integrals                 ...  NO (   0 nuclei)
Nucleus-orbit integrals                   ...  NO (   0 nuclei)
Geometric perturbations                   ...  NO (   2 nuclei)

Choice of electric origin   ... Center of mass
Position of electric origin ... (  0.0000,  0.0000,  3.0110) 
Choice of magnetic origin   ... GIAO
Position of magnetic origin ... (  0.0000,  0.0000,  0.0000) 

Calculating integrals                     ... Electric Dipole (Length)     done (  0.0 sec)
Calculating integrals                     ... Angular Momentum  (ElOri)    done (  0.0 sec)

Property integrals calculated in   0.0 sec

Maximum memory used throughout the entire PROPINT-calculation: 1.2 MB
-------------------------------------------------------------------------------
                              ORCA-CASSCF
-------------------------------------------------------------------------------

Setting up the integral package     ... done


==========================================
CASSCF UV, CD spectra and dipole moments
==========================================

--------------
CASSCF TIMINGS
--------------

Total time                       ...        0.0 sec
Sum of individual times          ...        0.0 sec ( 98.6%)

Calculation of AO operators
Calculation of MO transformed quantities
Configuration interaction steps
   CI-setup phase                ...        0.0 sec ( 98.6%)
Orbital improvement steps
Properties                       ...        0.0 sec (  0.0%)
   SOC integral calculation      ...        0.0 sec (  0.0%)
   SSC RMEs (incl. integrals)    ...        0.0 sec (  0.0%)
   SOC RMEs                      ...        0.0 sec (  0.0%)

Maximum memory used throughout the entire CASSCF-calculation: 23.5 MB

-------------------------   --------------------
FINAL SINGLE POINT ENERGY        -0.933391588584
-------------------------   --------------------

Storing actual gbw-file in Hidrogen_CASCI_2.002.gbw ... done

------------------------------------------------------------------------------
                              ORCA PROPERTY CALCULATIONS
------------------------------------------------------------------------------

GBWName                                 ... Hidrogen_CASCI_2.gbw
Number of atoms                         ...      2
Number of basis functions               ...      2
Max core memory                         ...   1024 MB

Electric properties:
Dipole moment                           ... YES
Quadrupole moment                       ...  NO
Static polarizability (Dipole/Dipole)   ...  NO
Static polarizability (Dipole/Quad.)    ...  NO
Static polarizability (Quad./Quad.)     ...  NO
Static polarizability (Velocity)        ...  NO

Atomic electric properties:
Dipole moment                           ...  NO
Quadrupole moment                       ...  NO
Static polarizability                   ...  NO

Choice of electric origin               ... Center of mass
Position of electric origin             ...     0.000000     0.000000     3.010964

General magnetic properties:
Magnetizability                         ...  NO

EPR properties:
g-Tensor (aka g-matrix)                 ...  NO
Zero-Field splitting spin-orbit         ...  NO
Zero-field splitting spin-spin          ...  NO
Hyperfine couplings                     ...  NO (   0 nuclei)
Quadrupole couplings                    ...  NO (   0 nuclei)
Contact density                         ...  NO (   0 nuclei)

NMR properties:
Chemical shifts                         ...  NO (   0 nuclei)
Spin-rotation constants                 ...  NO (   0 nuclei)
Spin-spin couplings                     ...  NO (   0 nuclei,    0 pairs)

Choice of magnetic origin               ... GIAO
Position of magnetic origin             ...     0.000000     0.000000     0.000000

Properties with geometric perturbations:
SCF Hessian                             ...  NO
IR spectrum                             ...  NO
VCD spectrum                            ...  NO
X-ray spectroscopy properties:
SCF XES/XAS/RIXS spectra                ...  NO


-------------
DIPOLE MOMENT
-------------

Method             : CASSCF
Type of density    : Electron Density
Level              : Relaxed density
State              :   0
Multiplicity       :   1
Irrep              :   0
Energy             :    -0.9333915885837801 Eh
Relativity type    : 
Basis              : AO
                                X                 Y                 Z
Electronic contribution:     -0.000000000      -0.000000000      -0.000000000
Nuclear contribution   :      0.000000000       0.000000000       0.000000000
                        -----------------------------------------
Total Dipole Moment    :      0.000000000       0.000000000      -0.000000000
                        -----------------------------------------
Magnitude (a.u.)       :      0.000000000
Magnitude (Debye)      :      0.000000000



--------------------
Rotational spectrum 
--------------------
 
Rotational constants in cm-1:             0.000000             3.293769             3.293769 
Rotational constants in MHz :             0.000000         98744.699474         98744.699474 

Dipole components along the rotational axes: 
x,y,z [a.u.] :    -0.000000     0.000000     0.000000 
x,y,z [Debye]:    -0.000000     0.000000     0.000000 

 

Dipole moment calculation done in   0.0 sec 

Maximum memory used throughout the entire PROP-calculation: 0.7 MB

         *************************************************************
                                TRAJECTORY STEP   3
                  R  :   3.37333333
         *************************************************************
---------------------------------
CARTESIAN COORDINATES (ANGSTROEM)
---------------------------------
  H      0.000000    0.000000    0.000000
  H      0.000000    0.000000    3.373333

----------------------------
CARTESIAN COORDINATES (A.U.)
----------------------------
  NO LB      ZA    FRAG     MASS         X           Y           Z
   0 H     1.0000    0     1.008    0.000000    0.000000    0.000000
   1 H     1.0000    0     1.008    0.000000    0.000000    6.374676

--------------------------------
INTERNAL COORDINATES (ANGSTROEM)
--------------------------------
 H      0   0   0     0.000000000000     0.00000000     0.00000000
 H      1   0   0     3.373333333333     0.00000000     0.00000000

---------------------------
INTERNAL COORDINATES (A.U.)
---------------------------
 H      0   0   0     0.000000000000     0.00000000     0.00000000
 H      1   0   0     6.374676158428     0.00000000     0.00000000

------------------------------------------------------------------------------
                   ___                                                        
                  /   \      - P O W E R E D   B Y -                         
                 /     \                                                     
                 |  |  |   _    _      __       _____    __    __             
                 |  |  |  | |  | |    /  \     |  _  \  |  |  /  |          
                  \  \/   | |  | |   /    \    | | | |  |  | /  /          
                 / \  \   | |__| |  /  /\  \   | |_| |  |  |/  /          
                |  |  |   |  __  | /  /__\  \  |    /   |      \           
                |  |  |   | |  | | |   __   |  |    \   |  |\   \          
                \     /   | |  | | |  |  |  |  | |\  \  |  | \   \       
                 \___/    |_|  |_| |__|  |__|  |_| \__\ |__|  \__/        
                                                                              
                      - O R C A' S   B I G   F R I E N D -                    
                                      &                                       
                       - I N T E G R A L  F E E D E R -                       
                                                                              
 v1 FN, 2020, v2 2021, v3 2022-2024                                           
------------------------------------------------------------------------------


----------------------
SHARK INTEGRAL PACKAGE
----------------------

Number of atoms                             ...      2
Number of basis functions                   ...      2
Number of shells                            ...      2
Maximum angular momentum                    ...      0
Integral batch strategy                     ... SHARK/LIBINT Hybrid
RI-J (if used) integral strategy            ... SPLIT-RIJ (Revised 2003 algorithm where possible)
Printlevel                                  ...      1
Contraction scheme used                     ... PARTIAL GENERAL contraction
Prescreening option                         ... SCHWARTZ
   Thresh                                   ... 1.000e-10
   Tcut                                     ... 1.000e-11
   Tpresel                                  ... 1.000e-11 
Coulomb Range Separation                    ... NOT USED
Exchange Range Separation                   ... NOT USED
Multipole approximations                    ... NOT USED
Finite Nucleus Model                        ... NOT USED
CABS basis                                  ... NOT available
Auxiliary Coulomb fitting basis             ... NOT available
Auxiliary J/K fitting basis                 ... NOT available
Auxiliary Correlation fitting basis         ... NOT available
Auxiliary 'external' fitting basis          ... NOT available

Checking pre-screening integrals            ... done (  0.0 sec) Dimension = 2
Save PGC pre-screening integrals            ... done (  0.0 sec) Dimension = 2
Calculate PGC overlap integrals             ... done (  0.0 sec) Dimension = 2
Calculating pre-screening integrals (ORCA)  ... done (  0.0 sec) Dimension = 2
Check shell pair data                       ... done (  0.0 sec)
Shell pair information
Shell pair cut-off parameter TPreSel        ...   1.0e-11
Total number of shell pairs                 ...         3
Shell pairs after pre-screening             ...         3
Total number of primitive shell pairs       ...        27
Primitive shell pairs kept                  ...        26
          la=0 lb=0:      3 shell pairs

Calculating one electron integrals          ... done (  0.0 sec)
Calculating Nuclear repulsion               ... done (  0.0 sec) ENN=      0.156870713923 Eh

Diagonalization of the overlap matrix:
Smallest eigenvalue                        ... 9.920e-01
Time for diagonalization                   ...    0.000 sec
Threshold for overlap eigenvalues          ... 1.000e-07
Number of eigenvalues below threshold      ... 0
Time for construction of square roots      ...    0.000 sec
Total time needed                          ...    0.000 sec

-------------------
DFT GRID GENERATION
-------------------

General Integration Accuracy     IntAcc      ... 4.388
Radial Grid Type                 RadialGrid  ... OptM3 with GC (2021)
Angular Grid (max. ang.)         AngularGrid ... 4 (Lebedev-302)
Angular grid pruning method      GridPruning ... 4 (adaptive)
Weight generation scheme         WeightScheme... mBecke (2022)
Basis function cutoff            BFCut       ... 1.0000e-10
Integration weight cutoff        WCut        ... 1.0000e-14
Partially contracted basis set               ... off
Rotationally invariant grid construction     ... off
Angular grids for H and He will be reduced by one unit

Total number of grid points                  ...     6666
Total number of batches                      ...      106
Average number of points per batch           ...       62
Average number of grid points per atom       ...     3333

---------------------
SHARK GRID GENERATION
---------------------

General Integration Accuracy     IntAcc      ... 4.388
Radial Grid Type                 RadialGrid  ... OptM3 with GC (2021)
Angular Grid (max. ang.)         AngularGrid ... 4 (Lebedev-302)
Angular grid pruning method      GridPruning ... 4 (adaptive)
Weight generation scheme         WeightScheme... mBecke (2022)
Basis function cutoff            BFCut       ... 1.0000e-10
Integration weight cutoff        WCut        ... 1.0000e-14
Partially contracted basis set               ... off
Rotationally invariant grid construction     ... off
Angular grids for H and He will be reduced by one unit

Total number of grid points                  ...     6666
Total number of batches                      ...      106
Average number of points per batch           ...       62
Average number of grid points per atom       ...     3333
Initializing property integral containers    ... done (  0.0 sec)

SHARK setup successfully completed in   0.1 seconds

Maximum memory used throughout the entire STARTUP-calculation: 2.7 MB
Occupation numbers will be reassigned to an Aufbau configuration
             **** ENERGY FILE WAS UPDATED (Hidrogen_CASCI_2.en.tmp) ****
Finished Guess after   0.0 sec
Maximum memory used throughout the entire GUESS-calculation: 1.1 MB
-------------------------------------------------------------------------------
                              ORCA-CASSCF
-------------------------------------------------------------------------------

Building the CAS space              ... done (3 configurations for Mult=1)

SYSTEM-SPECIFIC SETTINGS:
Number of active electrons          ...    2
Number of active orbitals           ...    2
Total number of electrons           ...    2
Total number of orbitals            ...    2

Determined orbital ranges:
   Internal       0 -   -1 (   0 orbitals)
   Active         0 -    1 (   2 orbitals)
   External       2 -    1 (   0 orbitals)
Number of rotation parameters      ...      0

WARNING: Performing a full CI. Skipping orbital update and alike.
         The calculation might take substantial time!

CI-STEP:
CI strategy                         ... General CI
Number of multiplicity blocks       ...    1
BLOCK  0 WEIGHT=   1.0000
  Multiplicity                      ...    1
  #(Configurations)                 ...    3
  #(CSFs)                           ...    3
  #(Roots)                          ...    1
    ROOT=0 WEIGHT=    1.000000

  PrintLevel                        ...    1
  N(GuessMat)                       ...      2048
  MaxDim(CI)                        ...        10
  MaxIter(CI)                       ...        64
  Energy Tolerance CI               ...  1.00e-08
  Residual Tolerance CI             ...  1.00e-08
  Shift(CI)                         ...  1.00e-04

INTEGRAL-TRANSFORMATION-STEP:
  Algorithm                         ... EXACT

ORBITAL-IMPROVEMENT-STEP:
  MaxMacroIter 1 detected                >>> CAS-CI. Check your FINAL ORBITAL options!

SCF-SETTINGS:
  Incremental                       ... on
  RIJCOSX approximation             ... off
  RI-JK approximation               ... off
  AO integral handling              ... DIRECT
  Integral Neglect Thresh           ...  1.00e-10
  Primitive cutoff TCut             ...  1.00e-11
  Energy convergence tolerance      ...  1.00e-07
  Orbital gradient convergence      ...  1.00e-03
  Max. number of iterations         ...         1  


FINAL ORBITALS:
  Active   Orbitals                 ... unchanged 
  Internal Orbitals                 ... canonical 
  External Orbitals                 ... canonical 

------------------
CAS-SCF ITERATIONS
------------------


MACRO-ITERATION   1: 
   --- Inactive Energy E0 = 0.15687071 Eh
   --- All densities will be recomputed
CI-ITERATION   0: 
    -0.933272149   0.000000000000 (    0.00)
   CI-PROBLEM SOLVED
   DENSITIES MADE

                 <<<<<<<<<<<<<<<<<<INITIAL CI STATE CHECK>>>>>>>>>>>>>>>>>>

BLOCK  0 MULT= 1 NROOTS= 1 
ROOT   0:  E=      -0.9332721493 Eh
      0.51764 [     0]: 20
      0.48236 [     2]: 02

                 <<<<<<<<<<<<<<<<<<INITIAL CI STATE CHECK>>>>>>>>>>>>>>>>>>

   E(CAS)=    -0.933272149 Eh DE=    0.000000e+00
   N(occ)=  1.03527 0.96473
--------------
CASSCF RESULTS
--------------

Final CASSCF energy       : -0.933272149 Eh     -25.3956 eV


---------------------------------------------
CAS-SCF STATES FOR BLOCK  0 MULT= 1 NROOTS= 1
---------------------------------------------

ROOT   0:  E=      -0.9332721493 Eh
      0.51764 [     0]: 20
      0.48236 [     2]: 02


--------------
DENSITY MATRIX
--------------

                  0          1    
      0       1.035275  -0.000000
      1      -0.000000   0.964725
Trace of the electron density:  2.000000

-----------------
ENERGY COMPONENTS
-----------------

One electron energy          :     -1.247139175 Eh         -33.9364 eV
Two electron energy          :      0.156996312 Eh           4.2721 eV
Nuclear repulsion energy     :      0.156870714 Eh           4.2687 eV
                               ----------------
                                   -0.933272149

Kinetic energy               :      1.519522045 Eh          41.3483 eV
Potential energy             :     -2.452794194 Eh         -66.7439 eV
Virial ratio                 :     -1.614187963 
                               ----------------
                                   -0.933272149

Core energy                  :      0.156870714 Eh        4.2687 eV


----------------------------
LOEWDIN REDUCED ACTIVE MOs  
----------------------------

                      0         1   
                  -0.08749  -0.07106
                   1.03527   0.96473
                  --------  --------
 0 H  s              50.0      50.0
 1 H  s              50.0      50.0

-------------------------------------------------------------
 Forming the transition density       ... done in 0.0 sec
-------------------------------------------------------------
Memory for address arrays  		      ... done
Make address arrays			      ... done
Memory for buffers 			      ... done
Setting up spin-function prototypes	      ... (MAXOPEN=2) 0 2 4 done
Trivial cases - DOMO's			      ... done (  0.0 MB)
Number of open shells			    ...  0
domo->virtual excitations			... done (  0.0 MB)
domo->somo excitations				... done (  0.0 MB)
somo->virtual excitations			... done (  0.0 MB)
somo->somo excitations				... done (  0.0 MB)
Number of open shells			    ...  2
domo->virtual excitations			... done (  0.0 MB)
domo->somo excitations				... done (  0.0 MB)
somo->virtual excitations			... done (  0.0 MB)
somo->somo excitations				... done (  0.0 MB)
Coupling container construction done

--------------
CASSCF TIMINGS
--------------

Total time                       ...        0.0 sec
Sum of individual times          ...        0.0 sec ( 56.2%)

Calculation of AO operators
   F(Core) operator              ...        0.0 sec (  0.6%)
   G(Act) operator               ...        0.0 sec (  0.3%)
Calculation of MO transformed quantities
   J(MO) operators               ...        0.0 sec ( 43.7%)
   AO->MO one electron integrals ...        0.0 sec (  0.0%)
Configuration interaction steps
   CI-setup phase                ...        0.0 sec (  4.0%)
   CI-solution phase             ...        0.0 sec (  6.7%)
   Generation of densities       ...        0.0 sec (  0.1%)
Orbital improvement steps
CPCM steps
   Total CPCM time               ...        0.0 sec (  0.2%)
Properties                       ...        0.0 sec (  0.6%)
   SOC integral calculation      ...        0.0 sec (  0.0%)
   SSC RMEs (incl. integrals)    ...        0.0 sec (  0.0%)
   SOC RMEs                      ...        0.0 sec (  0.0%)

Maximum memory used throughout the entire CASSCF-calculation: 29.6 MB

------------------------------------------------------------------------------
                         ORCA PROPERTY INTEGRAL CALCULATIONS
------------------------------------------------------------------------------

GBWName                                   ... Hidrogen_CASCI_2.gbw
Number of atoms                           ...      2
Number of basis functions                 ...      2
Max core memory                           ...   1024 MB

Dipole integrals                          ... YES
Quadrupole integrals                      ...  NO
Linear momentum integrals                 ...  NO
Angular momentum integrals                ... YES
Higher moments length integrals           ...  NO
Higher moments velocity integrals         ...  NO
Kinetic energy integrals                  ...  NO
GIAO right hand sides                     ...  NO
GIAO dipole derivative integrals          ...  NO
SOC integrals                             ...  NO
EPR diamagnetic integrals (GIAO)          ...  NO
EPR gauge integrals                       ...  NO
Field gradient integrals                  ...  NO (   0 nuclei)
Spin-dipole/Fermi contact integrals       ...  NO (   0 nuclei)
Contact density integrals                 ...  NO (   0 nuclei)
Nucleus-orbit integrals                   ...  NO (   0 nuclei)
Geometric perturbations                   ...  NO (   2 nuclei)

Choice of electric origin   ... Center of mass
Position of electric origin ... (  0.0000,  0.0000,  3.1873) 
Choice of magnetic origin   ... GIAO
Position of magnetic origin ... (  0.0000,  0.0000,  0.0000) 

Calculating integrals                     ... Electric Dipole (Length)     done (  0.0 sec)
Calculating integrals                     ... Angular Momentum  (ElOri)    done (  0.0 sec)

Property integrals calculated in   0.0 sec

Maximum memory used throughout the entire PROPINT-calculation: 1.2 MB
-------------------------------------------------------------------------------
                              ORCA-CASSCF
-------------------------------------------------------------------------------

Setting up the integral package     ... done


==========================================
CASSCF UV, CD spectra and dipole moments
==========================================

--------------
CASSCF TIMINGS
--------------

Total time                       ...        0.0 sec
Sum of individual times          ...        0.0 sec ( 98.5%)

Calculation of AO operators
Calculation of MO transformed quantities
Configuration interaction steps
   CI-setup phase                ...        0.0 sec ( 98.5%)
Orbital improvement steps
Properties                       ...        0.0 sec (  0.0%)
   SOC integral calculation      ...        0.0 sec (  0.0%)
   SSC RMEs (incl. integrals)    ...        0.0 sec (  0.0%)
   SOC RMEs                      ...        0.0 sec (  0.0%)

Maximum memory used throughout the entire CASSCF-calculation: 23.5 MB

-------------------------   --------------------
FINAL SINGLE POINT ENERGY        -0.933272149318
-------------------------   --------------------

Storing actual gbw-file in Hidrogen_CASCI_2.003.gbw ... done

------------------------------------------------------------------------------
                              ORCA PROPERTY CALCULATIONS
------------------------------------------------------------------------------

GBWName                                 ... Hidrogen_CASCI_2.gbw
Number of atoms                         ...      2
Number of basis functions               ...      2
Max core memory                         ...   1024 MB

Electric properties:
Dipole moment                           ... YES
Quadrupole moment                       ...  NO
Static polarizability (Dipole/Dipole)   ...  NO
Static polarizability (Dipole/Quad.)    ...  NO
Static polarizability (Quad./Quad.)     ...  NO
Static polarizability (Velocity)        ...  NO

Atomic electric properties:
Dipole moment                           ...  NO
Quadrupole moment                       ...  NO
Static polarizability                   ...  NO

Choice of electric origin               ... Center of mass
Position of electric origin             ...     0.000000     0.000000     3.187338

General magnetic properties:
Magnetizability                         ...  NO

EPR properties:
g-Tensor (aka g-matrix)                 ...  NO
Zero-Field splitting spin-orbit         ...  NO
Zero-field splitting spin-spin          ...  NO
Hyperfine couplings                     ...  NO (   0 nuclei)
Quadrupole couplings                    ...  NO (   0 nuclei)
Contact density                         ...  NO (   0 nuclei)

NMR properties:
Chemical shifts                         ...  NO (   0 nuclei)
Spin-rotation constants                 ...  NO (   0 nuclei)
Spin-spin couplings                     ...  NO (   0 nuclei,    0 pairs)

Choice of magnetic origin               ... GIAO
Position of magnetic origin             ...     0.000000     0.000000     0.000000

Properties with geometric perturbations:
SCF Hessian                             ...  NO
IR spectrum                             ...  NO
VCD spectrum                            ...  NO
X-ray spectroscopy properties:
SCF XES/XAS/RIXS spectra                ...  NO


-------------
DIPOLE MOMENT
-------------

Method             : CASSCF
Type of density    : Electron Density
Level              : Relaxed density
State              :   0
Multiplicity       :   1
Irrep              :   0
Energy             :    -0.9332721493179833 Eh
Relativity type    : 
Basis              : AO
                                X                 Y                 Z
Electronic contribution:     -0.000000000      -0.000000000      -0.000000000
Nuclear contribution   :      0.000000000       0.000000000       0.000000000
                        -----------------------------------------
Total Dipole Moment    :      0.000000000       0.000000000      -0.000000000
                        -----------------------------------------
Magnitude (a.u.)       :      0.000000000
Magnitude (Debye)      :      0.000000000



--------------------
Rotational spectrum 
--------------------
 
Rotational constants in cm-1:             0.000000             2.939327             2.939327 
Rotational constants in MHz :             0.000000         88118.795461         88118.795461 

Dipole components along the rotational axes: 
x,y,z [a.u.] :    -0.000000     0.000000     0.000000 
x,y,z [Debye]:    -0.000000     0.000000     0.000000 

 

Dipole moment calculation done in   0.0 sec 

Maximum memory used throughout the entire PROP-calculation: 0.8 MB

         *************************************************************
                                TRAJECTORY STEP   4
                  R  :   3.56000000
[...]
Angular Grid (max. ang.)         AngularGrid ... 4 (Lebedev-302)
Angular grid pruning method      GridPruning ... 4 (adaptive)
Weight generation scheme         WeightScheme... mBecke (2022)
Basis function cutoff            BFCut       ... 1.0000e-10
Integration weight cutoff        WCut        ... 1.0000e-14
Partially contracted basis set               ... off
Rotationally invariant grid construction     ... off
Angular grids for H and He will be reduced by one unit

Total number of grid points                  ...     6668
Total number of batches                      ...      106
Average number of points per batch           ...       62
Average number of grid points per atom       ...     3334
Initializing property integral containers    ... done (  0.0 sec)

SHARK setup successfully completed in   0.1 seconds

Maximum memory used throughout the entire STARTUP-calculation: 2.7 MB
Occupation numbers will be reassigned to an Aufbau configuration
             **** ENERGY FILE WAS UPDATED (Hidrogen_CASCI_2.en.tmp) ****
Finished Guess after   0.0 sec
Maximum memory used throughout the entire GUESS-calculation: 1.1 MB
-------------------------------------------------------------------------------
                              ORCA-CASSCF
-------------------------------------------------------------------------------

Building the CAS space              ... done (3 configurations for Mult=1)

SYSTEM-SPECIFIC SETTINGS:
Number of active electrons          ...    2
Number of active orbitals           ...    2
Total number of electrons           ...    2
Total number of orbitals            ...    2

Determined orbital ranges:
   Internal       0 -   -1 (   0 orbitals)
   Active         0 -    1 (   2 orbitals)
   External       2 -    1 (   0 orbitals)
Number of rotation parameters      ...      0

WARNING: Performing a full CI. Skipping orbital update and alike.
         The calculation might take substantial time!

CI-STEP:
CI strategy                         ... General CI
Number of multiplicity blocks       ...    1
BLOCK  0 WEIGHT=   1.0000
  Multiplicity                      ...    1
  #(Configurations)                 ...    3
  #(CSFs)                           ...    3
  #(Roots)                          ...    1
    ROOT=0 WEIGHT=    1.000000

  PrintLevel                        ...    1
  N(GuessMat)                       ...      2048
  MaxDim(CI)                        ...        10
  MaxIter(CI)                       ...        64
  Energy Tolerance CI               ...  1.00e-08
  Residual Tolerance CI             ...  1.00e-08
  Shift(CI)                         ...  1.00e-04

INTEGRAL-TRANSFORMATION-STEP:
  Algorithm                         ... EXACT

ORBITAL-IMPROVEMENT-STEP:
  MaxMacroIter 1 detected                >>> CAS-CI. Check your FINAL ORBITAL options!

SCF-SETTINGS:
  Incremental                       ... on
  RIJCOSX approximation             ... off
  RI-JK approximation               ... off
  AO integral handling              ... DIRECT
  Integral Neglect Thresh           ...  1.00e-10
  Primitive cutoff TCut             ...  1.00e-11
  Energy convergence tolerance      ...  1.00e-07
  Orbital gradient convergence      ...  1.00e-03
  Max. number of iterations         ...         1  


FINAL ORBITALS:
  Active   Orbitals                 ... unchanged 
  Internal Orbitals                 ... canonical 
  External Orbitals                 ... canonical 

------------------
CAS-SCF ITERATIONS
------------------


MACRO-ITERATION   1: 
   --- Inactive Energy E0 = 0.09123745 Eh
   --- All densities will be recomputed
CI-ITERATION   0: 
    -0.933163700   0.000000000000 (    0.00)
   CI-PROBLEM SOLVED
   DENSITIES MADE

                 <<<<<<<<<<<<<<<<<<INITIAL CI STATE CHECK>>>>>>>>>>>>>>>>>>

BLOCK  0 MULT= 1 NROOTS= 1 
ROOT   0:  E=      -0.9331636998 Eh
      0.50004 [     0]: 20
      0.49996 [     2]: 02

                 <<<<<<<<<<<<<<<<<<INITIAL CI STATE CHECK>>>>>>>>>>>>>>>>>>

   E(CAS)=    -0.933163700 Eh DE=    0.000000e+00
   N(occ)=  1.00007 0.99993
--------------
CASSCF RESULTS
--------------

Final CASSCF energy       : -0.933163700 Eh     -25.3927 eV


---------------------------------------------
CAS-SCF STATES FOR BLOCK  0 MULT= 1 NROOTS= 1
---------------------------------------------

ROOT   0:  E=      -0.9331636998 Eh
      0.50004 [     0]: 20
      0.49996 [     2]: 02


--------------
DENSITY MATRIX
--------------

                  0          1    
      0       1.000070  -0.000000
      1      -0.000000   0.999930
Trace of the electron density:  2.000000

-----------------
ENERGY COMPONENTS
-----------------

One electron energy          :     -1.115638600 Eh         -30.3581 eV
Two electron energy          :      0.091237450 Eh           2.4827 eV
Nuclear repulsion energy     :      0.091237450 Eh           2.4827 eV
                               ----------------
                                   -0.933163700

Kinetic energy               :      1.520063765 Eh          41.3630 eV
Potential energy             :     -2.453227465 Eh         -66.7557 eV
Virial ratio                 :     -1.613897733 
                               ----------------
                                   -0.933163700

Core energy                  :      0.091237450 Eh        2.4827 eV


----------------------------
LOEWDIN REDUCED ACTIVE MOs  
----------------------------

                      0         1   
                  -0.07929  -0.07926
                   1.00007   0.99993
                  --------  --------
 0 H  s              50.0      50.0
 1 H  s              50.0      50.0

-------------------------------------------------------------
 Forming the transition density       ... done in 0.0 sec
-------------------------------------------------------------
Memory for address arrays  		      ... done
Make address arrays			      ... done
Memory for buffers 			      ... done
Setting up spin-function prototypes	      ... (MAXOPEN=2) 0 2 4 done
Trivial cases - DOMO's			      ... done (  0.0 MB)
Number of open shells			    ...  0
domo->virtual excitations			... done (  0.0 MB)
domo->somo excitations				... done (  0.0 MB)
somo->virtual excitations			... done (  0.0 MB)
somo->somo excitations				... done (  0.0 MB)
Number of open shells			    ...  2
domo->virtual excitations			... done (  0.0 MB)
domo->somo excitations				... done (  0.0 MB)
somo->virtual excitations			... done (  0.0 MB)
somo->somo excitations				... done (  0.0 MB)
Coupling container construction done

--------------
CASSCF TIMINGS
--------------

Total time                       ...        0.0 sec
Sum of individual times          ...        0.0 sec ( 53.5%)

Calculation of AO operators
   F(Core) operator              ...        0.0 sec (  0.5%)
   G(Act) operator               ...        0.0 sec (  0.3%)
Calculation of MO transformed quantities
   J(MO) operators               ...        0.0 sec ( 41.2%)
   AO->MO one electron integrals ...        0.0 sec (  0.0%)
Configuration interaction steps
   CI-setup phase                ...        0.0 sec (  4.4%)
   CI-solution phase             ...        0.0 sec (  6.1%)
   Generation of densities       ...        0.0 sec (  0.1%)
Orbital improvement steps
CPCM steps
   Total CPCM time               ...        0.0 sec (  0.2%)
Properties                       ...        0.0 sec (  0.6%)
   SOC integral calculation      ...        0.0 sec (  0.0%)
   SSC RMEs (incl. integrals)    ...        0.0 sec (  0.0%)
   SOC RMEs                      ...        0.0 sec (  0.0%)

Maximum memory used throughout the entire CASSCF-calculation: 29.6 MB

------------------------------------------------------------------------------
                         ORCA PROPERTY INTEGRAL CALCULATIONS
------------------------------------------------------------------------------

GBWName                                   ... Hidrogen_CASCI_2.gbw
Number of atoms                           ...      2
Number of basis functions                 ...      2
Max core memory                           ...   1024 MB

Dipole integrals                          ... YES
Quadrupole integrals                      ...  NO
Linear momentum integrals                 ...  NO
Angular momentum integrals                ... YES
Higher moments length integrals           ...  NO
Higher moments velocity integrals         ...  NO
Kinetic energy integrals                  ...  NO
GIAO right hand sides                     ...  NO
GIAO dipole derivative integrals          ...  NO
SOC integrals                             ...  NO
EPR diamagnetic integrals (GIAO)          ...  NO
EPR gauge integrals                       ...  NO
Field gradient integrals                  ...  NO (   0 nuclei)
Spin-dipole/Fermi contact integrals       ...  NO (   0 nuclei)
Contact density integrals                 ...  NO (   0 nuclei)
Nucleus-orbit integrals                   ...  NO (   0 nuclei)
Geometric perturbations                   ...  NO (   2 nuclei)

Choice of electric origin   ... Center of mass
Position of electric origin ... (  0.0000,  0.0000,  5.4802) 
Choice of magnetic origin   ... GIAO
Position of magnetic origin ... (  0.0000,  0.0000,  0.0000) 

Calculating integrals                     ... Electric Dipole (Length)     done (  0.0 sec)
Calculating integrals                     ... Angular Momentum  (ElOri)    done (  0.0 sec)

Property integrals calculated in   0.0 sec

Maximum memory used throughout the entire PROPINT-calculation: 1.2 MB
-------------------------------------------------------------------------------
                              ORCA-CASSCF
-------------------------------------------------------------------------------

Setting up the integral package     ... done


==========================================
CASSCF UV, CD spectra and dipole moments
==========================================

--------------
CASSCF TIMINGS
--------------

Total time                       ...        0.0 sec
Sum of individual times          ...        0.0 sec ( 98.7%)

Calculation of AO operators
Calculation of MO transformed quantities
Configuration interaction steps
   CI-setup phase                ...        0.0 sec ( 98.7%)
Orbital improvement steps
Properties                       ...        0.0 sec (  0.0%)
   SOC integral calculation      ...        0.0 sec (  0.0%)
   SSC RMEs (incl. integrals)    ...        0.0 sec (  0.0%)
   SOC RMEs                      ...        0.0 sec (  0.0%)

Maximum memory used throughout the entire CASSCF-calculation: 24.7 MB

-------------------------   --------------------
FINAL SINGLE POINT ENERGY        -0.933163699754
-------------------------   --------------------

Storing actual gbw-file in Hidrogen_CASCI_2.016.gbw ... done

------------------------------------------------------------------------------
                              ORCA PROPERTY CALCULATIONS
------------------------------------------------------------------------------

GBWName                                 ... Hidrogen_CASCI_2.gbw
Number of atoms                         ...      2
Number of basis functions               ...      2
Max core memory                         ...   1024 MB

Electric properties:
Dipole moment                           ... YES
Quadrupole moment                       ...  NO
Static polarizability (Dipole/Dipole)   ...  NO
Static polarizability (Dipole/Quad.)    ...  NO
Static polarizability (Quad./Quad.)     ...  NO
Static polarizability (Velocity)        ...  NO

Atomic electric properties:
Dipole moment                           ...  NO
Quadrupole moment                       ...  NO
Static polarizability                   ...  NO

Choice of electric origin               ... Center of mass
Position of electric origin             ...     0.000000     0.000000     5.480206

General magnetic properties:
Magnetizability                         ...  NO

EPR properties:
g-Tensor (aka g-matrix)                 ...  NO
Zero-Field splitting spin-orbit         ...  NO
Zero-field splitting spin-spin          ...  NO
Hyperfine couplings                     ...  NO (   0 nuclei)
Quadrupole couplings                    ...  NO (   0 nuclei)
Contact density                         ...  NO (   0 nuclei)

NMR properties:
Chemical shifts                         ...  NO (   0 nuclei)
Spin-rotation constants                 ...  NO (   0 nuclei)
Spin-spin couplings                     ...  NO (   0 nuclei,    0 pairs)

Choice of magnetic origin               ... GIAO
Position of magnetic origin             ...     0.000000     0.000000     0.000000

Properties with geometric perturbations:
SCF Hessian                             ...  NO
IR spectrum                             ...  NO
VCD spectrum                            ...  NO
X-ray spectroscopy properties:
SCF XES/XAS/RIXS spectra                ...  NO


-------------
DIPOLE MOMENT
-------------

Method             : CASSCF
Type of density    : Electron Density
Level              : Relaxed density
State              :   0
Multiplicity       :   1
Irrep              :   0
Energy             :    -0.9331636997536539 Eh
Relativity type    : 
Basis              : AO
                                X                 Y                 Z
Electronic contribution:     -0.000000000      -0.000000000      -0.000000000
Nuclear contribution   :      0.000000000       0.000000000       0.000000000
                        -----------------------------------------
Total Dipole Moment    :      0.000000000       0.000000000      -0.000000000
                        -----------------------------------------
Magnitude (a.u.)       :      0.000000000
Magnitude (Debye)      :      0.000000000



--------------------
Rotational spectrum 
--------------------
 
Rotational constants in cm-1:             0.000000             0.994284             0.994284 
Rotational constants in MHz :             0.000000         29807.879396         29807.879396 

Dipole components along the rotational axes: 
x,y,z [a.u.] :    -0.000000     0.000000     0.000000 
x,y,z [Debye]:    -0.000000     0.000000     0.000000 

 

Dipole moment calculation done in   0.0 sec 

Maximum memory used throughout the entire PROP-calculation: 2.1 MB
                              **** TRAJECTORY DONE ***

                         SUMMARY OF THE CALCULATED SURFACE

------------------
TRAJECTORY RESULTS
------------------

Column   1: R

The Calculated Surface using the 'Actual Energy'
   3.00000000  -0.93363184
   3.18666667  -0.93339159
   3.37333333  -0.93327215
   3.56000000  -0.93321419
   3.74666667  -0.93318671
   3.93333333  -0.93317397
   4.12000000  -0.93316819
   4.30666667  -0.93316561
   4.49333333  -0.93316450
   4.68000000  -0.93316402
   4.86666667  -0.93316382
   5.05333333  -0.93316375
   5.24000000  -0.93316372
   5.42666667  -0.93316371
   5.61333333  -0.93316370
   5.80000000  -0.93316370

                        *******************************
                        *   FIT OF THE ACT-ENERGY PES *
                        *******************************
-------------------------------
POTENTIAL ENERGY SURFACE =   0
-------------------------------

The Calculated Surface using the SCF energy
   3.00000000  -0.93363184
   3.18666667  -0.93339159
   3.37333333  -0.93327215
   3.56000000  -0.93321419
   3.74666667  -0.93318671
   3.93333333  -0.93317397
   4.12000000  -0.93316819
   4.30666667  -0.93316561
   4.49333333  -0.93316450
   4.68000000  -0.93316402
   4.86666667  -0.93316382
   5.05333333  -0.93316375
   5.24000000  -0.93316372
   5.42666667  -0.93316371
   5.61333333  -0.93316370
   5.80000000  -0.93316370

                        *******************************
                        *       FIT OF THE SCF PES    *
                        *******************************
-------------------------------
POTENTIAL ENERGY SURFACE =   0
-------------------------------


--------------------------------
SUGGESTED CITATIONS FOR THIS RUN
--------------------------------

Below you find a list of papers that are relevant to this ORCA run
We neither can nor want to force you to cite these papers, but we appreciate if you do
You receive ORCA, which is the product of decades of hard work by many enthusiastic individuals, for free
The only thing we kindly ask in return is that you cite our papers,
We deeply appreciate it, if you show your appreciation for ORCA by not just citing the generic ORCA reference.

Please note that relegating all ORCA citations to the supporting information does *not* help us.
SI sections are not indexed - citations you put there will not count into any citation statistics
But we need these citations in order to attract the funding resources that allow us to do what we are doing

Therefore, if you are a happy ORCA user, please consider citing a few of the papers listed below in the main body of your paper

In addition to the list printed below, the program has created the file Hidrogen_CASCI_2.bibtex that contains the list in bibtex format
You can import this file easily into all common literature databanks and citation aid programs


List of essential papers. We consider these as the minimum necessary citations

  1. Neese,F.
     Software update: the ORCA program system, version 5.0
     WIRES Comput. Molec. Sci., 2022 12(1)e1606
     doi.org/10.1002/wcms.1606

List of papers to cite with high priority. The work reported in these papers was absolutely
necessary for this run to complete.
Our perspective: the developers of density functionals and basis sets usually get cited in chemistry papers
Good! But without the algorithms to do something with them, the functionals or basis sets would not do anything.
Hence, in our opinion, the algorithm design and method developments papers are equally worthy of getting cited

  1. Kollmar,C.; Sivalingam,K.; Helmich-Paris,B.; Angeli,C.; Neese,F.
     A perturbation-based super-CI approach for the orbital optimization of a CASSCF wave function
     J. Comput. Chem., 2019 40 1463-1470
     doi.org/10.1002/jcc.25801
  2. Neese,F.
     The SHARK Integral Generation and Digestion System
     J. Comp. Chem., 2022  1-16
     doi.org/10.1002/jcc.26942
  3. Ugandi,M.; Roemelt,M.
     A recursive formulation of one-electron coupling coefficients for spin-adapted configuration interaction calculations featuring many unpaired electrons
     Int. J. Quantum Chem., 2023 123 e27045
     doi.org/10.1002/qua.27045

List of suggested additional citations. These are papers that are important in the 'surrounding' of 
of this run, or papers that preceded the highly important papers. If you like your results we are grateful for a citation.

  1. Neese,F.
     The ORCA program system
     WIRES Comput. Molec. Sci., 2012 2(1)73-78
     doi.org/10.1002/wcms.81
  2. Neese,F.
     Software update: the ORCA program system, version 4.0
     WIRES Comput. Molec. Sci., 2018 8(1)1-6
     doi.org/10.1002/wcms.1327
  3. Neese,F.; Wennmohs,F.; Becker,U.; Riplinger,C.
     The ORCA quantum chemistry program package
     J. Chem. Phys., 2020 152 Art. No. L224108
     doi.org/10.1063/5.0004608

List of optional additional citations

  1. Neese,F.
     Approximate second-order SCF convergence for spin unrestricted wavefunctions
     Chem. Phys. Lett., 2000 325(1-3)93-98
     doi.org/10.1016/s0009-2614(00)00662-x

Timings for individual modules:

Sum of individual times          ...        5.243 sec (=   0.087 min)
Startup calculation              ...        1.433 sec (=   0.024 min)  27.3 %
SCF iterations                   ...        0.574 sec (=   0.010 min)  11.0 %
CASSCF iterations                ...        2.179 sec (=   0.036 min)  41.6 %
Property integrals               ...        0.517 sec (=   0.009 min)   9.9 %
Property calculations            ...        0.540 sec (=   0.009 min)  10.3 %
                             ****ORCA TERMINATED NORMALLY****
TOTAL RUN TIME: 0 days 0 hours 0 minutes 5 seconds 768 msec
