
                                 *****************
                                 * O   R   C   A *
                                 *****************

                                            #,                                       
                                            ###                                      
                                            ####                                     
                                            #####                                    
                                            ######                                   
                                           ########,                                 
                                     ,,################,,,,,                         
                               ,,#################################,,                 
                          ,,##########################################,,             
                       ,#########################################, ''#####,          
                    ,#############################################,,   '####,        
                  ,##################################################,,,,####,       
                ,###########''''           ''''###############################       
              ,#####''   ,,,,##########,,,,          '''####'''          '####       
            ,##' ,,,,###########################,,,                        '##       
           ' ,,###''''                  '''############,,,                           
         ,,##''                                '''############,,,,        ,,,,,,###''
      ,#''                                            '''#######################'''  
     '                                                          ''''####''''         
             ,#######,   #######,   ,#######,      ##                                
            ,#'     '#,  ##    ##  ,#'     '#,    #''#        ,####,   ,####,        
            ##       ##  ##   ,#'  ##            #'  '#       #'       #'  '#        
            ##       ##  #######   ##           ,######,      #####,   #    #        
            '#,     ,#'  ##    ##  '#,     ,#' ,#      #,     #,   #   #,  ,#        
             '#######'   ##     ##  '#######'  #'      '#     '####' # '####'        



                #########################################################
                #                        -***-                          #
                #          Department of theory and spectroscopy        #
                #                                                       #
                #                      Frank Neese                      #
                #                                                       #
                #     Directorship, Architecture, Infrastructure        #
                #                    SHARK, DRIVERS                     #
                #        Core code/Algorithms in most modules           #
                #                                                       #
                #        Max Planck Institute fuer Kohlenforschung      #
                #                Kaiser Wilhelm Platz 1                 #
                #                 D-45470 Muelheim/Ruhr                 #
                #                      Germany                          #
                #                                                       #
                #                  All rights reserved                  #
                #                        -***-                          #
                #########################################################


                         Program Version 6.0.1  -  RELEASE   -


 With contributions from (in alphabetic order):
[Max-Planck-Institut fuer Kohlenforschung]                               
  Daniel Aravena         : Magnetic Suceptibility                        
  Michael Atanasov       : Ab Initio Ligand Field Theory (pilot matlab implementation)
  Alexander A. Auer      : GIAO ZORA, VPT2 properties, NMR spectrum      
  Ute Becker             : All parallelization in ORCA, NUMFREQ, NUMCALC 
  Giovanni Bistoni       : ED, misc. LED, open-shell LED, HFLD           
  Martin Brehm           : Molecular dynamics                            
  Dmytro Bykov           : pre 5.0 version of the SCF Hessian            
  Marcos Casanova-Páez   : Triplet and SCS-CIS(D). UHF-(DLPNO)-IP/EA/STEOM-CCSD. UHF-CVS-IP/STEOM-CCSD   
  Vijay G. Chilkuri      : MRCI spin determinant printing, contributions to CSF-ICE 
  Pauline Colinet        : FMM embedding                                 
  Dipayan Datta          : RHF DLPNO-CCSD density                        
  Achintya Kumar Dutta   : EOM-CC, STEOM-CC                              
  Nicolas Foglia         : Exact transition moments, OPA infrastructure, MCD improvements    
  Dmitry Ganyushin       : Spin-Orbit,Spin-Spin,Magnetic field MRCI      
  Miquel Garcia-Rates    : C-PCM and meta-GGA Hessian, CCSD/C-PCM, Gaussian charge scheme 
  Tiago L. C. Gouveia    : GS-ROHF, GS-ROCIS                             
  Yang Guo               : DLPNO-NEVPT2, F12-NEVPT2, CIM, IAO-localization        
  Andreas Hansen         : Spin unrestricted coupled pair/coupled cluster methods 
  Ingolf Harden          : AUTO-CI MPn and infrastructure                
  Benjamin Helmich-Paris : MC-RPA, TRAH-(SCF,CASSCF), AVAS, COSX integrals, SCF dyn. polar. 
  Lee Huntington         : MR-EOM, pCC                                   
  Robert Izsak           : Overlap fitted RIJCOSX, COSX-SCS-MP3, EOM     
  Riya Kayal             : Wick's Theorem for AUTO-CI, AUTO-CI UHF-CCSDT 
  Emily Kempfer          : AUTO-CI, RHF CISDT and CCSDT                  
  Christian Kollmar      : KDIIS, OOCD, Brueckner-CCSD(T), CCSD density, CASPT2, CASPT2-K, improved NEVPT2 
  Axel Koslowski         : Symmetry handling                             
  Simone Kossmann        : meta-GGA functionals, TD-DFT gradient, OOMP2, (MP2 Hessian; deprecated post 5.0) 
  Lucas Lang             : DCDCAS                                        
  Marvin Lechner         : AUTO-CI (C++ implementation), FIC-MRCC        
  Spencer Leger          : CASSCF response                               
  Dagmar Lenk            : GEPOL surface, SMD, ORCA-2-JSON               
  Dimitrios Liakos       : Extrapolation schemes; Compound Job, initial MDCI parallelization 
  Dimitrios Manganas     : Further ROCIS development; embedding schemes. LFT, Crystal Embedding 
  Dimitrios Pantazis     : SARC Basis sets                               
  Anastasios Papadopoulos: AUTO-CI, single reference methods and gradients 
  Taras Petrenko         : pre 6.0 DFT Hessian and TD-DFT gradient, (ASA, deprecated), ECA, 1-Electron XAS/XES, NRVS 
  Peter Pinski           : DLPNO-MP2, DLPNO-MP2 Gradient                 
  Christoph Reimann      : Effective Core Potentials                     
  Marius Retegan         : Local ZFS, SOC                                
  Christoph Riplinger    : Optimizer, TS searches, QM/MM, DLPNO-CCSD(T), (RO)-DLPNO pert. Triples 
  Michael Roemelt        : Original ROCIS implementation                 
  Masaaki Saitow         : Open-shell DLPNO-CCSD energy and density      
  Barbara Sandhoefer     : DKH picture change effects                    
  Kantharuban Sivalingam : CASSCF convergence/infrastructure, NEVPT2 and variants, FIC-MRCI 
  Bernardo de Souza      : ESD, SOC TD-DFT                               
  Georgi L. Stoychev     : AutoAux, RI-MP2 NMR, DLPNO-MP2 response, X2C  
  Van Anh Tran           : RI-MP2 g-tensors                              
  Willem Van den Heuvel  : Paramagnetic NMR                              
  Zikuan Wang            : NOTCH, Electric field optimization            
  Frank Wennmohs         : Technical directorship and infrastructure     
  Hang Xu                : AUTO-CI-Response properties                   
                                                                         
[FACCTs GmbH]                                                            
  Markus Bursch, Miquel Garcia-Rates, Christoph Riplinger, Bernardo de Souza, Georgi L. Stoychev 
                                                                 
  APM, Basis sets (HGBS, AHGBS, def-TZVP (Ac-Lr), def2-XVPD (La-Lu)), CI-OPT, improved COSX, DLPNO-Multilevel,           
  DOCKER, DRACO, updates on ESD, GOAT, IRC, LR-CPCM, MBIS, meta-GGA TD-DFT gradient, ML-optimized integration grids, 
  MM, NACMEs, nearIR, NEB, NEB-TS, NL-DFT gradient (VV10), 2- and 3-layer-ONIOM, interface openCOSMO-RS, QMMM,   
  Crystal-QMMM, SF, symmetry and pop. for TD-DFT, r2SCAN hybrids, SOLVATOR                                   
                                                                         
[Other institutions]                                                     
  V. Asgeirsson          : NEB                                           
  Christoph Bannwarth    : sTDA-DFT, sTD-DFT, PBEh-3c, B97-3c, D3        
  Sebastian Ehlert       : rSCAN, r2SCAN, r2SCAN-3c, D4, dhf basis sets  
  Marvin Friede          : D4 for Fr, Ra, Ac-Lr                          
  Lars Goerigk           : TD-DFT with DH, B97 family of functionals     
  Stefan Grimme          : VdW corrections, initial TS optimization, DFT functionals, gCP, sTDA/sTD-DF 
  Waldemar Hujo          : DFT-NL                                        
  H. Jonsson             : NEB                                           
  Holger Kruse           : gCP                                           
  Marcel Mueller         : wB97X-3c, vDZP basis set                      
  Hagen Neugebauer       : wr2SCAN                                       
  Tobias Risthaus        : range-separated hybrid DFT                    
  Lukas Wittmann         : regularized MP2, r2SCAN double-hybrids, wr2SCAN        
                                                                         
We gratefully acknowledge several colleagues who have allowed us to      
interface, adapt or use parts of their codes:                            
  Ed Valeev, F. Pavosevic, A. Kumar             : LibInt (2-el integral package), F12 methods 
  Garnet Chan, S. Sharma, J. Yang, R. Olivares  : DMRG                   
  Ulf Ekstrom                                   : XCFun DFT Library      
  Mihaly Kallay                                 : mrcc  (arbitrary order and MRCC methods)
  Frank Weinhold                                : gennbo (NPA and NBO analysis)           
  Simon Mueller                                 : openCOSMO-RS                            
  Christopher J. Cramer and Donald G. Truhlar   : smd solvation model                     
  S Lehtola, MJT Oliveira, MAL Marques          : LibXC Library                           
  Liviu Ungur et al                             : ANISO software                          


 Your calculation uses the libint2 library for the computation of 2-el integrals
 For citations please refer to: http://libint.valeyev.net

 Your ORCA version has been built with support for libXC version: 6.2.2
 For citations please refer to: https://libxc.gitlab.io

 This ORCA versions uses:
   CBLAS   interface :  Fast vector & matrix operations
   LAPACKE interface :  Fast linear algebra routines
   SCALAPACK package :  Parallel linear algebra routines
   Shared memory     :  Shared parallel matrices
   BLAS/LAPACK       :  OpenBLAS 0.3.27  USE64BITINT DYNAMIC_ARCH NO_AFFINITY SkylakeX SINGLE_THREADED
        Core in use  :  SkylakeX
   Copyright (c) 2011-2014, The OpenBLAS Project


================================================================================

----- Orbital basis set information -----
Your calculation utilizes the basis: STO-3G
   H-Ne       : W. J. Hehre, R. F. Stewart and J. A. Pople, J. Chem. Phys. 2657 (1969).
   Na-Ar      : W. J. Hehre, R. Ditchfield, R. F. Stewart and J. A. Pople, J. Chem. Phys. 2769 (1970).
   K,Ca,Ga-Kr : W. J. Pietro, B. A. Levy, W. J. Hehre and R. F. Stewart, J. Am. Chem. Soc. 19, 2225 (1980).
   Sc-Zn,Y-Cd : W. J. Pietro and W. J. Hehre, J. Comp. Chem. 4, 241 (1983).

================================================================================
                                        WARNINGS
                       Please study these warnings very carefully!
================================================================================

WARNING: Old DensityContainer found on disk!
         Will remove this file - 
         If you want to keep old densities, please start your calculation with a different basename. 


================================================================================
                                       INPUT FILE
================================================================================
NAME = CH4_CASSCF_1.inp
|  1> ! CASSCF STO-3G SlowConv
|  2> %pal
|  3>   nprocs 4
|  4> end
|  5> 
|  6> %casscf
|  7>   nel     4
|  8>   norb    4
|  9>   maxiter 500
| 10>   orbstep diis
| 11>   switchstep nr
| 12> end
| 13> 
| 14> %scf
| 15>   maxiter 500
| 16> end
| 17> 
| 18> %paras
| 19>   R = 0.50, 3.00, 16
| 20> end
| 21> 
| 22> * xyz 0 1
| 23> C   0.000000   0.000000   0.000000
| 24> H   0.000000   0.000000  {R}
| 25> H  -0.907297  -0.496407  -0.351129
| 26> H   0.673211   0.167304  -0.843621
| 27> H  -0.261596   0.958896   0.452753
| 28> **                         ****END OF INPUT****
================================================================================

                       ******************************
                       * Parameter Scan Calculation *
                       ******************************

Trajectory settings:
    -> SCF surface will be mapped

There are 1 parameter(s) to be scanned
             R: range=   0.50000000 ..   3.00000000  steps=   16
There will be   16 energy evaluations


         *************************************************************
                                TRAJECTORY STEP   1
                  R  :   0.50000000
         *************************************************************
---------------------------------
CARTESIAN COORDINATES (ANGSTROEM)
---------------------------------
  C      0.000000    0.000000    0.000000
  H      0.000000    0.000000    0.500000
  H     -0.907297   -0.496407   -0.351129
  H      0.673211    0.167304   -0.843621
  H     -0.261596    0.958896    0.452753

----------------------------
CARTESIAN COORDINATES (A.U.)
----------------------------
  NO LB      ZA    FRAG     MASS         X           Y           Z
   0 C     6.0000    0    12.011    0.000000    0.000000    0.000000
   1 H     1.0000    0     1.008    0.000000    0.000000    0.944863
   2 H     1.0000    0     1.008   -1.714543   -0.938073   -0.663538
   3 H     1.0000    0     1.008    1.272184    0.316159   -1.594213
   4 H     1.0000    0     1.008   -0.494345    1.812051    0.855579

--------------------------------
INTERNAL COORDINATES (ANGSTROEM)
--------------------------------
 C      0   0   0     0.000000000000     0.00000000     0.00000000
 H      1   0   0     0.500000000000     0.00000000     0.00000000
 H      1   2   0     1.092199308963   108.75293829     0.00000000
 H      1   2   3     1.092199647765   140.57039357   194.72806121
 H      2   1   3     0.995060945390    87.27848639   256.57523207

---------------------------
INTERNAL COORDINATES (A.U.)
---------------------------
 C      0   0   0     0.000000000000     0.00000000     0.00000000
 H      1   0   0     0.944863066961     0.00000000     0.00000000
 H      1   2   0     2.063957577598   108.75293829     0.00000000
 H      1   2   3     2.063958217841   140.57039357   194.72806121
 H      2   1   3     1.880392673348    87.27848639   256.57523207

---------------------
BASIS SET INFORMATION
---------------------
There are 2 groups of distinct atoms

 Group   1 Type C   : 6s3p contracted to 2s1p pattern {33/3}
 Group   2 Type H   : 3s contracted to 1s pattern {3}

Atom   0C    basis set group =>   1
Atom   1H    basis set group =>   2
Atom   2H    basis set group =>   2
Atom   3H    basis set group =>   2
Atom   4H    basis set group =>   2

Checking for AutoStart:
The File: CH4_CASSCF_1.gbw exists
Trying to determine its content:
     ... Fine, the file contains calculation information
     ... Fine, the calculation information was read
     ... Fine, the file contains a basis set
     ... Fine, the basis set was read
     ... Fine, the file contains a geometry
     ... Fine, the geometry was read
     ... Fine, the file contains a set of orbitals
     ... Fine, the orbitals can be read
     => possible old guess file was deleted
     => GBW file was renamed to GES file
     => GES file is set as startup file
     => Guess is set to MORead
     ... now leaving AutoStart



           ************************************************************
           *        Program running with 4 parallel MPI-processes     *
           *              working on a common directory               *
           ************************************************************
------------------------------------------------------------------------------
                             ORCA STARTUP CALCULATIONS
------------------------------------------------------------------------------
------------------------------------------------------------------------------
                   ___                                                        
                  /   \      - P O W E R E D   B Y -                         
                 /     \                                                     
                 |  |  |   _    _      __       _____    __    __             
                 |  |  |  | |  | |    /  \     |  _  \  |  |  /  |          
                  \  \/   | |  | |   /    \    | | | |  |  | /  /          
                 / \  \   | |__| |  /  /\  \   | |_| |  |  |/  /          
                |  |  |   |  __  | /  /__\  \  |    /   |      \           
                |  |  |   | |  | | |   __   |  |    \   |  |\   \          
                \     /   | |  | | |  |  |  |  | |\  \  |  | \   \       
                 \___/    |_|  |_| |__|  |__|  |_| \__\ |__|  \__/        
                                                                              
                      - O R C A' S   B I G   F R I E N D -                    
                                      &                                       
                       - I N T E G R A L  F E E D E R -                       
                                                                              
 v1 FN, 2020, v2 2021, v3 2022-2024                                           
------------------------------------------------------------------------------


----------------------
SHARK INTEGRAL PACKAGE
----------------------

Number of atoms                             ...      5
Number of basis functions                   ...      9
Number of shells                            ...      7
Maximum angular momentum                    ...      1
Integral batch strategy                     ... SHARK/LIBINT Hybrid
RI-J (if used) integral strategy            ... SPLIT-RIJ (Revised 2003 algorithm where possible)
Printlevel                                  ...      1
Contraction scheme used                     ... SEGMENTED contraction
Prescreening option                         ... SCHWARTZ
   Thresh                                   ... 1.000e-10
   Tcut                                     ... 1.000e-11
   Tpresel                                  ... 1.000e-11 
Coulomb Range Separation                    ... NOT USED
Exchange Range Separation                   ... NOT USED
Multipole approximations                    ... NOT USED
Finite Nucleus Model                        ... NOT USED
CABS basis                                  ... NOT available
Auxiliary Coulomb fitting basis             ... NOT available
Auxiliary J/K fitting basis                 ... NOT available
Auxiliary Correlation fitting basis         ... NOT available
Auxiliary 'external' fitting basis          ... NOT available

Checking pre-screening integrals            ... done (  0.0 sec) Dimension = 7
Check shell pair data                       ... done (  0.0 sec)
Shell pair information
Shell pair cut-off parameter TPreSel        ...   1.0e-11
Total number of shell pairs                 ...        28
Shell pairs after pre-screening             ...        28
Total number of primitive shell pairs       ...       252
Primitive shell pairs kept                  ...       252
          la=0 lb=0:     21 shell pairs
          la=1 lb=0:      6 shell pairs
          la=1 lb=1:      1 shell pairs

Calculating one electron integrals          ... done (  0.0 sec)
Calculating Nuclear repulsion               ... done (  0.0 sec) ENN=     17.238170741807 Eh

Diagonalization of the overlap matrix:
Smallest eigenvalue                        ... 3.094e-02
Time for diagonalization                   ...    0.000 sec
Threshold for overlap eigenvalues          ... 1.000e-07
Number of eigenvalues below threshold      ... 0
Time for construction of square roots      ...    0.000 sec
Total time needed                          ...    0.002 sec

-------------------
DFT GRID GENERATION
-------------------

General Integration Accuracy     IntAcc      ... 4.388
Radial Grid Type                 RadialGrid  ... OptM3 with GC (2021)
Angular Grid (max. ang.)         AngularGrid ... 4 (Lebedev-302)
Angular grid pruning method      GridPruning ... 4 (adaptive)
Weight generation scheme         WeightScheme... mBecke (2022)
Basis function cutoff            BFCut       ... 1.0000e-10
Integration weight cutoff        WCut        ... 1.0000e-14
Partially contracted basis set               ... off
Rotationally invariant grid construction     ... off
Angular grids for H and He will be reduced by one unit

Total number of grid points                  ...    19189
Total number of batches                      ...      302
Average number of points per batch           ...       63
Average number of grid points per atom       ...     3838
Initializing property integral containers    ... done (  0.0 sec)

SHARK setup successfully completed in   0.1 seconds

Maximum memory used throughout the entire STARTUP-calculation: 4.9 MB


           ************************************************************
           *        Program running with 4 parallel MPI-processes     *
           *              working on a common directory               *
           ************************************************************
-------------------------------------------------------------------------------
                                 ORCA GUESS
                   Start orbitals & Density for SCF / CASSCF
-------------------------------------------------------------------------------

------------
SCF SETTINGS
------------
Hamiltonian:
 Ab initio Hamiltonian  Method          .... Hartree-Fock(GTOs)


General Settings:
 Integral files         IntName         .... CH4_CASSCF_1
 Hartree-Fock type      HFTyp           .... CASSCF
 Total Charge           Charge          ....    0
 Multiplicity           Mult            ....    1
 Number of Electrons    NEL             ....   10
 Basis Dimension        Dim             ....    9
 Nuclear Repulsion      ENuc            ....     17.2381707418 Eh

---------------------
INITIAL GUESS: MOREAD
---------------------
Guess MOs are being read from file: CH4_CASSCF_1.ges
Input geometry compatible with but different from current geometry
Input basis set matches current basis set (good)
Occupation numbers will be reassigned to an Aufbau configuration
MOs were renormalized
Gram-Schmidt orthogonalization of all MOs with pivot on actives
                      ------------------
                      INITIAL GUESS DONE (   0.0 sec)
                      ------------------
             **** ENERGY FILE WAS UPDATED (CH4_CASSCF_1.en.tmp) ****
Finished Guess after   0.4 sec
Maximum memory used throughout the entire GUESS-calculation: 2.0 MB


           ************************************************************
           *        Program running with 4 parallel MPI-processes     *
           *              working on a common directory               *
           ************************************************************
-------------------------------------------------------------------------------
                              ORCA-CASSCF
-------------------------------------------------------------------------------

Building the CAS space              ... done (19 configurations for Mult=1)

SYSTEM-SPECIFIC SETTINGS:
Number of active electrons          ...    4
Number of active orbitals           ...    4
Total number of electrons           ...   10
Total number of orbitals            ...    9

Determined orbital ranges:
   Internal       0 -    2 (   3 orbitals)
   Active         3 -    6 (   4 orbitals)
   External       7 -    8 (   2 orbitals)
Number of rotation parameters      ...     26

CI-STEP:
CI strategy                         ... General CI
Number of multiplicity blocks       ...    1
BLOCK  0 WEIGHT=   1.0000
  Multiplicity                      ...    1
  #(Configurations)                 ...   19
  #(CSFs)                           ...   20
  #(Roots)                          ...    1
    ROOT=0 WEIGHT=    1.000000

  PrintLevel                        ...    1
  N(GuessMat)                       ...      2048
  MaxDim(CI)                        ...        10
  MaxIter(CI)                       ...        64
  Energy Tolerance CI               ...  1.00e-08
  Residual Tolerance CI             ...  1.00e-08
  Shift(CI)                         ...  1.00e-04

INTEGRAL-TRANSFORMATION-STEP:
  Algorithm                         ... EXACT

ORBITAL-IMPROVEMENT-STEP:
  Algorithm                         ... DIIS
  Default Parametrization           ... CAYLEY
  Act-Act rotations                 ... depends on algorithm used
  FreezeIE                          ... 95.00% of ||g||
  Until reaching FreezeIE rotations with active orbitals are damped. 

  Approx. Fock at                   ... 1.000000e-05 density convergence
  Level shift                       ... energy gap dependent. Minimum=1.000
  Max. no of vectors                ... 15
  Switch step at gradient           ...  3.00e-02 
  Switch step at iteration          ...        50   
  Switch step to                    ... NR    

  Newton-Raphson/Augmented Hessian solver details:
  Solver                            ... 0
  Tol                               ... 1.0e-06
  Max. no of iterations             ... 35
  PrintLevel                        ... 1
  N(GuessMat)                       ... 512
  ExactDiagSwitch                   ... 512
  Diagonal Hessian Shift            ... 0.000e+00
  Secular equation safety shift     ... 1.000e-04
  Denominator shift in update       ... 1.000e-04
  Cutoff for Hessian matrix storage ... 1.000e-10
  Max. memory for integral trafo    ... 1024
  Max. no of expansion vectors      ... 35
  Max. DIIS vectors                 ... 12
  Preconditioner                    ... CASSCF-FOCKIAN
  SubMatrix initial guess+update    ... ON


SCF-SETTINGS:
  Incremental                       ... on
  RIJCOSX approximation             ... off
  RI-JK approximation               ... off
  AO integral handling              ... DIRECT
  Integral Neglect Thresh           ...  1.00e-10
  Primitive cutoff TCut             ...  1.00e-11
  Energy convergence tolerance      ...  1.00e-07
  Orbital gradient convergence      ...  1.00e-03
  Max. number of iterations         ...       500  


FINAL ORBITALS:
  Active   Orbitals                 ... natural 
  Internal Orbitals                 ... canonical 
  External Orbitals                 ... canonical 

------------------
CAS-SCF ITERATIONS
------------------


MACRO-ITERATION   1: 
   --- Canonicalize Internal Space
   --- Canonicalize External Space
   --- Inactive Energy E0 = -27.62988440 Eh
CI-ITERATION   0: 
   -35.889201186   0.000000000000 (    0.00)
   CI-PROBLEM SOLVED
   DENSITIES MADE

                 <<<<<<<<<<<<<<<<<<INITIAL CI STATE CHECK>>>>>>>>>>>>>>>>>>

BLOCK  0 MULT= 1 NROOTS= 1 
ROOT   0:  E=     -35.8892011856 Eh
      0.45151 [     1]: 2110
      0.40379 [     3]: 2020
      0.09465 [     0]: 2200
      0.01368 [     8]: 1120
      0.00907 [     4]: 2011
      0.00476 [     6]: 1210
      0.00373 [    17]: 0112
      0.00350 [     9]: 1111
      0.00343 [     2]: 2101
      0.00291 [    13]: 0220
      0.00288 [    18]: 0022
      0.00254 [    11]: 1021

                 <<<<<<<<<<<<<<<<<<INITIAL CI STATE CHECK>>>>>>>>>>>>>>>>>>

   E(CAS)=   -35.889201186 Eh DE=    0.000000e+00
   --- Energy gap subspaces: Ext-Act = 0.066   Act-Int = -1.848
   --- current l-shift: Up(Ext-Act) = 1.93   Dn(Act-Int) = 3.85
   N(occ)=  1.95020 0.68644 1.32720 0.03617
   ||g|| =     3.640763e+00 Max(G)=    2.371490e+00 Rot=8,2
   --- Orbital Update [      DIIS]
   --- Density off from convergence (1.771e-01). Exact active Fock build

MACRO-ITERATION   2: 
   --- Inactive Energy E0 = -28.55558416 Eh
CI-ITERATION   0: 
   -37.041594551   0.000000000000 (    0.00)
   CI-PROBLEM SOLVED
   DENSITIES MADE
   E(CAS)=   -37.041594551 Eh DE=   -1.152393e+00
   --- Energy gap subspaces: Ext-Act = 0.050   Act-Int = -1.882
   --- current l-shift: Up(Ext-Act) = 1.45   Dn(Act-Int) = 3.38
   N(occ)=  1.97843 1.85639 0.14819 0.01699
   ||g|| =     4.133093e+00 Max(G)=    2.820704e+00 Rot=8,0
   --- Orbital Update [      DIIS]
   --- Density off from convergence (9.328e-02). Exact active Fock build

MACRO-ITERATION   3: 
   --- Inactive Energy E0 = -29.12009281 Eh
CI-ITERATION   0: 
   -37.679141729   0.000000000000 (    0.00)
   CI-PROBLEM SOLVED
   DENSITIES MADE
   E(CAS)=   -37.679141729 Eh DE=   -6.375472e-01
   --- Energy gap subspaces: Ext-Act = 0.041   Act-Int = -1.624
   --- current l-shift: Up(Ext-Act) = 1.29   Dn(Act-Int) = 2.96
   N(occ)=  1.98286 1.96507 0.03701 0.01506
   ||g|| =     2.984208e+00 Max(G)=   -1.442901e+00 Rot=5,2
   --- Orbital Update [      DIIS]
   --- SFit(Active Orbitals)
   --- Density off from convergence (1.983e-01). Exact active Fock build

MACRO-ITERATION   4: 
   --- Inactive Energy E0 = -30.21116497 Eh
CI-ITERATION   0: 
   -38.172009839   0.000000000000 (    0.00)
   CI-PROBLEM SOLVED
   DENSITIES MADE
   E(CAS)=   -38.172009839 Eh DE=   -4.928681e-01
   --- Energy gap subspaces: Ext-Act = 0.031   Act-Int = -0.943
   --- current l-shift: Up(Ext-Act) = 0.97   Dn(Act-Int) = 1.94
   N(occ)=  1.97975 1.85647 0.14843 0.01535
   ||g|| =     2.261366e+00 Max(G)=    1.157111e+00 Rot=5,2
   --- Orbital Update [      DIIS]
   --- SFit(Active Orbitals)
   --- Density off from convergence (2.441e-01). Exact active Fock build

MACRO-ITERATION   5: 
   --- Inactive Energy E0 = -31.28187517 Eh
CI-ITERATION   0: 
   -38.515893759   0.000000000000 (    0.00)
   CI-PROBLEM SOLVED
   DENSITIES MADE
   E(CAS)=   -38.515893759 Eh DE=   -3.438839e-01
   --- Energy gap subspaces: Ext-Act = 0.010   Act-Int = -0.209
   --- current l-shift: Up(Ext-Act) = 0.99   Dn(Act-Int) = 1.21
   N(occ)=  1.95972 1.66447 0.35963 0.01618
   ||g|| =     1.038616e+00 Max(G)=   -6.671229e-01 Rot=5,2
   --- Orbital Update [      DIIS]
   --- SFit(Active Orbitals)
   --- Density off from convergence (2.475e-01). Exact active Fock build

MACRO-ITERATION   6: 
   --- Inactive Energy E0 = -31.82147569 Eh
CI-ITERATION   0: 
   -38.604334640   0.000000000000 (    0.00)
   CI-PROBLEM SOLVED
   DENSITIES MADE
   E(CAS)=   -38.604334640 Eh DE=   -8.844088e-02
   --- Energy gap subspaces: Ext-Act = 0.001   Act-Int = 0.343
   --- current l-shift: Up(Ext-Act) = 1.00   Dn(Act-Int) = 0.66
   N(occ)=  1.94759 1.56637 0.46868 0.01737
   ||g|| =     4.286099e-01 Max(G)=   -3.038616e-01 Rot=5,0
   --- Orbital Update [      DIIS]
   --- SFit(Active Orbitals)
   --- Density off from convergence (1.194e-01). Exact active Fock build

MACRO-ITERATION   7: 
   --- Inactive Energy E0 = -31.78538484 Eh
CI-ITERATION   0: 
   -38.604407619   0.000000000000 (    0.00)
   CI-PROBLEM SOLVED
   DENSITIES MADE
   E(CAS)=   -38.604407619 Eh DE=   -7.297982e-05
   --- Energy gap subspaces: Ext-Act = 0.007   Act-Int = 0.143
   --- current l-shift: Up(Ext-Act) = 0.99   Dn(Act-Int) = 0.86
   N(occ)=  1.94203 1.55310 0.48702 0.01785
   ||g|| =     3.819349e-01 Max(G)=    2.894835e-01 Rot=7,0
   --- Orbital Update [      DIIS]
   --- SFit(Active Orbitals)
   --- Density off from convergence (1.753e-02). Exact active Fock build

MACRO-ITERATION   8: 
   --- Inactive Energy E0 = -31.85597837 Eh
CI-ITERATION   0: 
   -38.606576902   0.000000000000 (    0.00)
   CI-PROBLEM SOLVED
   DENSITIES MADE
   E(CAS)=   -38.606576902 Eh DE=   -2.169283e-03
   --- Energy gap subspaces: Ext-Act = 0.009   Act-Int = 0.155
   --- current l-shift: Up(Ext-Act) = 0.99   Dn(Act-Int) = 0.85
   N(occ)=  1.94318 1.54468 0.49390 0.01823
   ||g|| =     3.832886e-01 Max(G)=   -3.307380e-01 Rot=7,0
   --- Orbital Update [      DIIS]
   --- SFit(Active Orbitals)
   --- Density off from convergence (8.563e-03). Exact active Fock build

MACRO-ITERATION   9: 
   --- Inactive Energy E0 = -31.88827237 Eh
CI-ITERATION   0: 
   -38.609031084   0.000000000000 (    0.00)
   CI-PROBLEM SOLVED
   DENSITIES MADE
   E(CAS)=   -38.609031084 Eh DE=   -2.454182e-03
   --- Energy gap subspaces: Ext-Act = 0.008   Act-Int = 0.202
   --- current l-shift: Up(Ext-Act) = 0.99   Dn(Act-Int) = 0.80
   N(occ)=  1.94321 1.54618 0.49198 0.01863
   ||g|| =     1.059397e-01 Max(G)=    8.956626e-02 Rot=7,0
   --- Orbital Update [      DIIS]
   --- SFit(Active Orbitals)
   --- Density off from convergence (1.655e-03). Exact active Fock build

MACRO-ITERATION  10: 
   --- Inactive Energy E0 = -31.90850747 Eh
CI-ITERATION   0: 
   -38.609476489   0.000000000000 (    0.00)
   CI-PROBLEM SOLVED
   DENSITIES MADE
   E(CAS)=   -38.609476489 Eh DE=   -4.454047e-04
   --- Energy gap subspaces: Ext-Act = 0.009   Act-Int = 0.443
   --- current l-shift: Up(Ext-Act) = 0.99   Dn(Act-Int) = 0.56
   N(occ)=  1.94236 1.54805 0.49048 0.01912
   ||g|| =     8.564984e-02 Max(G)=    4.914247e-02 Rot=5,0
   --- Orbital Update [      DIIS]
   --- SFit(Active Orbitals)
   --- Density off from convergence (1.964e-03). Exact active Fock build

MACRO-ITERATION  11: 
   --- Inactive Energy E0 = -32.01105134 Eh
CI-ITERATION   0: 
   -38.610329260   0.000000000000 (    0.00)
   CI-PROBLEM SOLVED
   DENSITIES MADE
   E(CAS)=   -38.610329260 Eh DE=   -8.527713e-04
   --- Energy gap subspaces: Ext-Act = 0.009   Act-Int = 0.046
   --- current l-shift: Up(Ext-Act) = 0.99   Dn(Act-Int) = 0.95
   N(occ)=  1.94208 1.54347 0.49471 0.01974
   ||g|| =     6.180741e-02 Max(G)=   -3.695330e-02 Rot=7,0
   --- Orbital Update [      DIIS]
   --- SFit(Active Orbitals)
   --- Density off from convergence (4.553e-03). Exact active Fock build

MACRO-ITERATION  12: 
   --- Inactive Energy E0 = -32.06352394 Eh
CI-ITERATION   0: 
   -38.610495279   0.000000000000 (    0.00)
   CI-PROBLEM SOLVED
   DENSITIES MADE
   E(CAS)=   -38.610495279 Eh DE=   -1.660188e-04
   --- Energy gap subspaces: Ext-Act = 0.007   Act-Int = 0.078
   --- current l-shift: Up(Ext-Act) = 0.99   Dn(Act-Int) = 0.92
   N(occ)=  1.94133 1.54338 0.49533 0.01996
   ||g|| =     5.068086e-02 Max(G)=    3.264774e-02 Rot=5,2
   --- Orbital Update [      DIIS]
   --- SFit(Active Orbitals)
   --- Density off from convergence (1.627e-03). Exact active Fock build

MACRO-ITERATION  13: 
   --- Inactive Energy E0 = -32.06349040 Eh
CI-ITERATION   0: 
   -38.610692392   0.000000000000 (    0.00)
   CI-PROBLEM SOLVED
   DENSITIES MADE
   E(CAS)=   -38.610692392 Eh DE=   -1.971136e-04
   --- Energy gap subspaces: Ext-Act = 0.009   Act-Int = 0.087
   --- current l-shift: Up(Ext-Act) = 0.99   Dn(Act-Int) = 0.91
   N(occ)=  1.94157 1.54482 0.49365 0.01997
   ||g|| =     2.997494e-02 Max(G)=   -1.707116e-02 Rot=4,0
   --- Orbital Update [      DIIS]
   --- SFit(Active Orbitals)
   --- Density off from convergence (1.728e-03). Exact active Fock build

MACRO-ITERATION  14: 
   ===>>> Convergence to 3.0e-02 achieved - switching to Step=NR
   two electron integrals
   --- Inactive Energy E0 = -32.09750246 Eh
CI-ITERATION   0: 
   -38.610847998   0.000000000000 (    0.00)
   CI-PROBLEM SOLVED
   DENSITIES MADE
   E(CAS)=   -38.610847998 Eh DE=   -1.556059e-04
   --- Energy gap subspaces: Ext-Act = 0.010   Act-Int = 0.135
   --- current l-shift: Up(Ext-Act) = 0.99   Dn(Act-Int) = 0.87
   N(occ)=  1.94140 1.54452 0.49398 0.02009
   ||g|| =     2.643466e-02 Max(G)=   -1.657701e-02 Rot=4,0
   --- Orbital Update [        NR]
   --- SFit(Active Orbitals)
   --- Density off from convergence (4.236e-04). Exact active Fock build

MACRO-ITERATION  15: 
   two electron integrals
   --- Inactive Energy E0 = -33.24505535 Eh
CI-ITERATION   0: 
   -38.616568410   0.000000000000 (    0.00)
   CI-PROBLEM SOLVED
   DENSITIES MADE
   E(CAS)=   -38.616568410 Eh DE=   -5.720412e-03
   --- Energy gap subspaces: Ext-Act = 0.010   Act-Int = 0.344
   --- current l-shift: Up(Ext-Act) = 0.99   Dn(Act-Int) = 0.66
   N(occ)=  1.94056 1.54335 0.49503 0.02105
   ||g|| =     1.762444e-02 Max(G)=   -9.060805e-03 Rot=4,1
   --- Orbital Update [        NR]
   AugHess TrustRadius-Update: Energy-Ratio   1.189 	 TrustRadius 0.500
   --- SFit(Active Orbitals)
   --- Density off from convergence (6.753e-03). Exact active Fock build

MACRO-ITERATION  16: 
   two electron integrals
   --- Inactive Energy E0 = -33.43063818 Eh
CI-ITERATION   0: 
   -38.620548358   0.000000000000 (    0.00)
   CI-PROBLEM SOLVED
   DENSITIES MADE
   E(CAS)=   -38.620548358 Eh DE=   -3.979948e-03
   --- Energy gap subspaces: Ext-Act = 0.007   Act-Int = 0.380
   --- current l-shift: Up(Ext-Act) = 0.99   Dn(Act-Int) = 0.62
   N(occ)=  1.94041 1.54288 0.49546 0.02125
   ||g|| =     1.990435e-02 Max(G)=   -1.034832e-02 Rot=4,1
   --- Orbital Update [        NR]
   AugHess TrustRadius-Update: Energy-Ratio   0.611 	 TrustRadius 1.000
   --- SFit(Active Orbitals)
   --- Density off from convergence (4.323e-03). Exact active Fock build

MACRO-ITERATION  17: 
   two electron integrals
   --- Inactive Energy E0 = -33.22924924 Eh
CI-ITERATION   0: 
   -38.627931314   0.000000000000 (    0.00)
   CI-PROBLEM SOLVED
   DENSITIES MADE
   E(CAS)=   -38.627931314 Eh DE=   -7.382956e-03
   --- Energy gap subspaces: Ext-Act = -0.023   Act-Int = 0.354
   --- current l-shift: Up(Ext-Act) = 1.02   Dn(Act-Int) = 0.65
   N(occ)=  1.94134 1.53895 0.49854 0.02117
   ||g|| =     3.618429e-02 Max(G)=    2.104033e-02 Rot=8,4
   --- Orbital Update [        NR]
   AugHess TrustRadius-Update: Energy-Ratio   1.090 	 TrustRadius 1.000
   --- SFit(Active Orbitals)
   --- Density off from convergence (1.196e-02). Exact active Fock build

MACRO-ITERATION  18: 
   two electron integrals
   --- Inactive Energy E0 = -33.30221061 Eh
CI-ITERATION   0: 
   -38.628814143   0.000000000000 (    0.00)
   CI-PROBLEM SOLVED
   DENSITIES MADE
   E(CAS)=   -38.628814143 Eh DE=   -8.828283e-04
   --- Energy gap subspaces: Ext-Act = -0.017   Act-Int = 0.374
   --- current l-shift: Up(Ext-Act) = 1.02   Dn(Act-Int) = 0.63
   N(occ)=  1.94087 1.53737 0.50053 0.02123
   ||g|| =     1.278286e-03 Max(G)=   -6.400290e-04 Rot=5,2
   --- Orbital Update [        NR]
   AugHess TrustRadius-Update: Energy-Ratio   1.078 	 TrustRadius 1.000
   --- SFit(Active Orbitals)
   --- Density off from convergence (2.127e-03). Exact active Fock build

MACRO-ITERATION  19: 
   two electron integrals
   --- Inactive Energy E0 = -33.31213626 Eh
CI-ITERATION   0: 
   -38.628820280   0.000000000000 (    0.00)
   CI-PROBLEM SOLVED
   DENSITIES MADE
   E(CAS)=   -38.628820280 Eh DE=   -6.136851e-06
   --- Energy gap subspaces: Ext-Act = -0.016   Act-Int = 0.375
   --- current l-shift: Up(Ext-Act) = 1.02   Dn(Act-Int) = 0.63
   N(occ)=  1.94087 1.53741 0.50049 0.02123
   ||g|| =     1.554402e-04 Max(G)=    1.088193e-04 Rot=5,1
                     ---- THE CAS-SCF GRADIENT HAS CONVERGED ----
                            --- FINALIZING ORBITALS ---
                    ---- DOING ONE FINAL ITERATION FOR PRINTING ----
   --- Canonicalize Internal Space
   --- Canonicalize External Space

MACRO-ITERATION  20: 
   --- Inactive Energy E0 = -33.31213626 Eh
   --- All densities will be recomputed
CI-ITERATION   0: 
   -38.628820280   0.000000000000 (    0.00)
   CI-PROBLEM SOLVED
   DENSITIES MADE
   E(CAS)=   -38.628820280 Eh DE=   -3.552714e-14
   --- Energy gap subspaces: Ext-Act = -0.018   Act-Int = 0.026
   --- current l-shift: Up(Ext-Act) = 1.02   Dn(Act-Int) = 0.97
   N(occ)=  1.98030 1.97077 0.02883 0.02010
   ||g|| =     1.554402e-04 Max(G)=   -1.226001e-04 Rot=5,1
--------------
CASSCF RESULTS
--------------

Final CASSCF energy       : -38.628820280 Eh   -1051.1436 eV

----------------
ORBITAL ENERGIES
----------------

  NO   OCC          E(Eh)            E(eV) 
   0   2.0000     -11.175207      -304.0928 
   1   2.0000      -0.958246       -26.0752 
   2   2.0000      -0.636165       -17.3109 
   3   1.9803      -0.609853       -16.5950 
   4   1.9708      -0.518483       -14.1086 
   5   0.0288       0.585773        15.9397 
   6   0.0201       0.678285        18.4571 
   7   0.0000       0.660494        17.9729 
   8   0.0000       2.080785        56.6210 


---------------------------------------------
CAS-SCF STATES FOR BLOCK  0 MULT= 1 NROOTS= 1
---------------------------------------------

ROOT   0:  E=     -38.6288202796 Eh
      0.97568 [     0]: 2200
      0.01289 [     3]: 2020
      0.00814 [    15]: 0202


--------------
DENSITY MATRIX
--------------

                  0          1          2          3    
      0       1.980302   0.000000   0.000000   0.000000
      1       0.000000   1.970767  -0.000000  -0.000000
      2       0.000000  -0.000000   0.028828  -0.000000
      3       0.000000  -0.000000  -0.000000   0.020103
Trace of the electron density:  4.000000

-----------------
ENERGY COMPONENTS
-----------------

One electron energy          :    -83.803483218 Eh       -2280.4087 eV
Two electron energy          :     27.936492196 Eh         760.1906 eV
Nuclear repulsion energy     :     17.238170742 Eh         469.0745 eV
                               ----------------
                                  -38.628820280

Kinetic energy               :     40.830361418 Eh        1111.0506 eV
Potential energy             :    -79.459181698 Eh       -2162.1943 eV
Virial ratio                 :     -1.946080782 
                               ----------------
                                  -38.628820280

Core energy                  :    -33.312136263 Eh     -906.4693 eV


----------------------------
LOEWDIN ORBITAL-COMPOSITIONS
----------------------------

                      0         1         2         3         4         5   
                 -11.17521  -0.95825  -0.63617  -0.60985  -0.51848   0.58577
                   2.00000   2.00000   2.00000   1.98030   1.97077   0.02883
                  --------  --------  --------  --------  --------  --------
 0 C  s              98.6      27.2       6.8       8.3       0.1       2.1
 0 C  pz              0.0      17.0      37.7       7.3       0.2       0.2
 0 C  px              0.0       4.5      12.7      38.8       2.7       3.9
 0 C  py              0.0       0.9       1.5       1.2      55.4      34.3
 1 H  s               1.3      43.0       1.8       0.2       0.0       2.5
 2 H  s               0.0       0.4       0.1      42.1       2.7       0.0
 3 H  s               0.0       4.8      39.3       0.1       0.2       0.2
 4 H  s               0.0       2.2       0.1       2.0      38.8      56.8

                      6         7         8   
                   0.67828   0.66049   2.08079
                   0.02010   0.00000   0.00000
                  --------  --------  --------
 0 C  s              10.5      19.6      26.8
 0 C  pz              5.7      10.4      21.6
 0 C  px             22.2      15.1       0.0
 0 C  py              6.1       0.5       0.0
 1 H  s               0.8       0.0      50.4
 2 H  s              54.6       0.1       0.0
 3 H  s               0.0      54.3       1.1

----------------------------
LOEWDIN REDUCED ACTIVE MOs  
----------------------------

                      0         1         2         3         4         5   
                 -11.17521  -0.95825  -0.63617  -0.60985  -0.51848   0.58577
                   2.00000   2.00000   2.00000   1.98030   1.97077   0.02883
                  --------  --------  --------  --------  --------  --------
 0 C  s              98.6      27.2       6.8       8.3       0.1       2.1
 0 C  pz              0.0      17.0      37.7       7.3       0.2       0.2
 0 C  px              0.0       4.5      12.7      38.8       2.7       3.9
 0 C  py              0.0       0.9       1.5       1.2      55.4      34.3
 1 H  s               1.3      43.0       1.8       0.2       0.0       2.5
 2 H  s               0.0       0.4       0.1      42.1       2.7       0.0
 3 H  s               0.0       4.8      39.3       0.1       0.2       0.2
 4 H  s               0.0       2.2       0.1       2.0      38.8      56.8

                      6   
                   0.67828
                   0.02010
                  --------
 0 C  s              10.5
 0 C  pz              5.7
 0 C  px             22.2
 0 C  py              6.1
 2 H  s              54.6
------------------------------------------------------------------------------
                           ORCA POPULATION ANALYSIS
------------------------------------------------------------------------------
Input electron density              ... CH4_CASSCF_1.scfp
BaseName (.gbw .S,...)              ... CH4_CASSCF_1

                    ********************************
                    * MULLIKEN POPULATION ANALYSIS *
                    ********************************

-----------------------
MULLIKEN ATOMIC CHARGES
-----------------------
   0 C :   -0.487836
   1 H :    0.045165
   2 H :    0.124831
   3 H :    0.144793
   4 H :    0.173047
Sum of atomic charges:    0.0000000

--------------------------------
MULLIKEN REDUCED ORBITAL CHARGES
--------------------------------
  0 C s       :     3.024776  s :     3.024776
      pz      :     1.143837  p :     3.463060
      px      :     1.164970
      py      :     1.154253
  1 H s       :     0.954835  s :     0.954835
  2 H s       :     0.875169  s :     0.875169
  3 H s       :     0.855207  s :     0.855207
  4 H s       :     0.826953  s :     0.826953


                     *******************************
                     * LOEWDIN POPULATION ANALYSIS *
                     *******************************

----------------------
LOEWDIN ATOMIC CHARGES
----------------------
   0 C :   -0.411935
   1 H :    0.073032
   2 H :    0.092586
   3 H :    0.112146
   4 H :    0.134170

-------------------------------
LOEWDIN REDUCED ORBITAL CHARGES
-------------------------------
  0 C s       :     2.820281  s :     2.820281
      pz      :     1.242893  p :     3.591654
      px      :     1.173115
      py      :     1.175646
  1 H s       :     0.926968  s :     0.926968
  2 H s       :     0.907414  s :     0.907414
  3 H s       :     0.887854  s :     0.887854
  4 H s       :     0.865830  s :     0.865830


                      *****************************
                      * MAYER POPULATION ANALYSIS *
                      *****************************

  NA   - Mulliken gross atomic population
  ZA   - Total nuclear charge
  QA   - Mulliken gross atomic charge
  VA   - Mayer's total valence
  BVA  - Mayer's bonded valence
  FA   - Mayer's free valence

  ATOM       NA         ZA         QA         VA         BVA        FA
  0 C      6.4878     6.0000    -0.4878     3.9189     3.8224     0.0965
  1 H      0.9548     1.0000     0.0452     0.9980     0.9992    -0.0012
  2 H      0.8752     1.0000     0.1248     0.9844     0.9441     0.0403
  3 H      0.8552     1.0000     0.1448     0.9790     0.9790     0.0000
  4 H      0.8270     1.0000     0.1730     0.9701     0.9123     0.0577

  Mayer bond orders larger than 0.100000
B(  0-C ,  1-H ) :   0.9944 B(  0-C ,  2-H ) :   0.9439 B(  0-C ,  3-H ) :   0.9843 
B(  0-C ,  4-H ) :   0.8997 


-------------------------------------------------------------
 Forming the transition density       ... done in 0.0 sec
-------------------------------------------------------------
Memory for address arrays  		      ... done
Make address arrays			      ... done
Memory for buffers 			      ... done
Setting up spin-function prototypes	      ... (MAXOPEN=4) 0 2 4 6 done
Trivial cases - DOMO's			      ... done (  0.0 MB)
Number of open shells			    ...  0
domo->virtual excitations			... done (  0.0 MB)
domo->somo excitations				... done (  0.0 MB)
somo->virtual excitations			... done (  0.0 MB)
somo->somo excitations				... done (  0.0 MB)
Number of open shells			    ...  2
domo->virtual excitations			... done (  0.0 MB)
domo->somo excitations				... done (  0.0 MB)
somo->virtual excitations			... done (  0.0 MB)
somo->somo excitations				... done (  0.0 MB)
Number of open shells			    ...  4
domo->virtual excitations			... done (  0.0 MB)
domo->somo excitations				... done (  0.0 MB)
somo->virtual excitations			... done (  0.0 MB)
somo->somo excitations				... done (  0.0 MB)
Coupling container construction done

--------------
CASSCF TIMINGS
--------------

Total time                       ...        1.6 sec
Sum of individual times          ...        1.4 sec ( 88.5%)

Calculation of AO operators
   F(Core) operator              ...        0.0 sec (  1.4%)
   G(Act) operator               ...        0.0 sec (  1.4%)
Calculation of MO transformed quantities
   J(MO) operators               ...        0.1 sec (  7.5%)
   (pq|rs) integrals             ...        0.0 sec (  0.1%)
   (ij|ab),(ia|jb) integrals     ...        0.7 sec ( 42.8%)
   AO->MO one electron integrals ...        0.0 sec (  0.0%)
Configuration interaction steps
   CI-setup phase                ...        0.0 sec (  0.9%)
   CI-solution phase             ...        0.4 sec ( 24.0%)
   Generation of densities       ...        0.0 sec (  0.2%)
Orbital improvement steps
   Orbital gradient              ...        0.0 sec (  0.4%)
   O(1) converger                ...        0.0 sec (  0.5%)
   O(2) converger                ...        0.1 sec (  8.8%)
CPCM steps
   Total CPCM time               ...        0.0 sec (  0.4%)
Properties                       ...        0.0 sec (  0.1%)
   SOC integral calculation      ...        0.0 sec (  0.0%)
   SSC RMEs (incl. integrals)    ...        0.0 sec (  0.0%)
   SOC RMEs                      ...        0.0 sec (  0.0%)

Maximum memory used throughout the entire CASSCF-calculation: 30.0 MB


           ************************************************************
           *        Program running with 4 parallel MPI-processes     *
           *              working on a common directory               *
           ************************************************************

------------------------------------------------------------------------------
                         ORCA PROPERTY INTEGRAL CALCULATIONS
------------------------------------------------------------------------------

GBWName                                   ... CH4_CASSCF_1.gbw
Number of atoms                           ...      5
Number of basis functions                 ...      9
Max core memory                           ...   1024 MB

Dipole integrals                          ... YES
Quadrupole integrals                      ...  NO
Linear momentum integrals                 ...  NO
Angular momentum integrals                ... YES
Higher moments length integrals           ...  NO
Higher moments velocity integrals         ...  NO
Kinetic energy integrals                  ...  NO
GIAO right hand sides                     ...  NO
GIAO dipole derivative integrals          ...  NO
SOC integrals                             ...  NO
EPR diamagnetic integrals (GIAO)          ...  NO
EPR gauge integrals                       ...  NO
Field gradient integrals                  ...  NO (   0 nuclei)
Spin-dipole/Fermi contact integrals       ...  NO (   0 nuclei)
Contact density integrals                 ...  NO (   0 nuclei)
Nucleus-orbit integrals                   ...  NO (   0 nuclei)
Geometric perturbations                   ...  NO (   5 nuclei)

Choice of electric origin   ... Center of mass
Position of electric origin ... ( -0.0589,  0.0748, -0.0287) 
Choice of magnetic origin   ... GIAO
Position of magnetic origin ... (  0.0000,  0.0000,  0.0000) 

Calculating integrals                     ... Electric Dipole (Length)     done (  0.0 sec)
Calculating integrals                     ... Angular Momentum  (ElOri)    done (  0.0 sec)

Property integrals calculated in   0.0 sec

Maximum memory used throughout the entire PROPINT-calculation: 2.1 MB


           ************************************************************
           *        Program running with 4 parallel MPI-processes     *
           *              working on a common directory               *
           ************************************************************
-------------------------------------------------------------------------------
                              ORCA-CASSCF
-------------------------------------------------------------------------------

Setting up the integral package     ... done


==========================================
CASSCF UV, CD spectra and dipole moments
==========================================

--------------
CASSCF TIMINGS
--------------

Total time                       ...        0.1 sec
Sum of individual times          ...        0.1 sec ( 98.7%)

Calculation of AO operators
Calculation of MO transformed quantities
Configuration interaction steps
   CI-setup phase                ...        0.1 sec ( 98.7%)
Orbital improvement steps
Properties                       ...        0.0 sec (  0.0%)
   SOC integral calculation      ...        0.0 sec (  0.0%)
   SSC RMEs (incl. integrals)    ...        0.0 sec (  0.0%)
   SOC RMEs                      ...        0.0 sec (  0.0%)

Maximum memory used throughout the entire CASSCF-calculation: 23.9 MB

-------------------------   --------------------
FINAL SINGLE POINT ENERGY       -38.628820279594
-------------------------   --------------------

Storing actual gbw-file in CH4_CASSCF_1.001.gbw ... done


           ************************************************************
           *        Program running with 4 parallel MPI-processes     *
           *              working on a common directory               *
           ************************************************************

------------------------------------------------------------------------------
                              ORCA PROPERTY CALCULATIONS
------------------------------------------------------------------------------

GBWName                                 ... CH4_CASSCF_1.gbw
Number of atoms                         ...      5
Number of basis functions               ...      9
Max core memory                         ...   1024 MB

Electric properties:
Dipole moment                           ... YES
Quadrupole moment                       ...  NO
Static polarizability (Dipole/Dipole)   ...  NO
Static polarizability (Dipole/Quad.)    ...  NO
Static polarizability (Quad./Quad.)     ...  NO
Static polarizability (Velocity)        ...  NO

Atomic electric properties:
Dipole moment                           ...  NO
Quadrupole moment                       ...  NO
Static polarizability                   ...  NO

Choice of electric origin               ... Center of mass
Position of electric origin             ...    -0.058854     0.074778    -0.028733

General magnetic properties:
Magnetizability                         ...  NO

EPR properties:
g-Tensor (aka g-matrix)                 ...  NO
Zero-Field splitting spin-orbit         ...  NO
Zero-field splitting spin-spin          ...  NO
Hyperfine couplings                     ...  NO (   0 nuclei)
Quadrupole couplings                    ...  NO (   0 nuclei)
Contact density                         ...  NO (   0 nuclei)

NMR properties:
Chemical shifts                         ...  NO (   0 nuclei)
Spin-rotation constants                 ...  NO (   0 nuclei)
Spin-spin couplings                     ...  NO (   0 nuclei,    0 pairs)

Choice of magnetic origin               ... GIAO
Position of magnetic origin             ...     0.000000     0.000000     0.000000

Properties with geometric perturbations:
SCF Hessian                             ...  NO
IR spectrum                             ...  NO
VCD spectrum                            ...  NO
X-ray spectroscopy properties:
SCF XES/XAS/RIXS spectra                ...  NO


-------------
DIPOLE MOMENT
-------------

Method             : CASSCF
Type of density    : Electron Density
Level              : Relaxed density
State              :   0
Multiplicity       :   1
Irrep              :   0
Energy             :   -38.6288202795943647 Eh
Relativity type    : 
Basis              : AO
                                X                 Y                 Z
Electronic contribution:      0.227715826      -0.181577959      -0.002790979
Nuclear contribution   :     -0.348161900       0.442360076      -0.169976185
                        -----------------------------------------
Total Dipole Moment    :     -0.120446074       0.260782118      -0.172767164
                        -----------------------------------------
Magnitude (a.u.)       :      0.335206000
Magnitude (Debye)      :      0.852025941



--------------------
Rotational spectrum 
--------------------
 
Rotational constants in cm-1:             8.150385             7.622095             5.032330 
Rotational constants in MHz :        244342.381463        228504.673755        150865.459601 

Dipole components along the rotational axes: 
x,y,z [a.u.] :     0.026414     0.066639    -0.327452 
x,y,z [Debye]:     0.067139     0.169384    -0.832316 

 

Dipole moment calculation done in   0.0 sec 

Maximum memory used throughout the entire PROP-calculation: 0.9 MB

         *************************************************************
                                TRAJECTORY STEP   2
                  R  :   0.66666667
         *************************************************************
---------------------------------
CARTESIAN COORDINATES (ANGSTROEM)
---------------------------------
  C      0.000000    0.000000    0.000000
  H      0.000000    0.000000    0.666667
  H     -0.907297   -0.496407   -0.351129
  H      0.673211    0.167304   -0.843621
  H     -0.261596    0.958896    0.452753

----------------------------
CARTESIAN COORDINATES (A.U.)
----------------------------
  NO LB      ZA    FRAG     MASS         X           Y           Z
   0 C     6.0000    0    12.011    0.000000    0.000000    0.000000
   1 H     1.0000    0     1.008    0.000000    0.000000    1.259817
   2 H     1.0000    0     1.008   -1.714543   -0.938073   -0.663538
   3 H     1.0000    0     1.008    1.272184    0.316159   -1.594213
   4 H     1.0000    0     1.008   -0.494345    1.812051    0.855579

--------------------------------
INTERNAL COORDINATES (ANGSTROEM)
--------------------------------
 C      0   0   0     0.000000000000     0.00000000     0.00000000
 H      1   0   0     0.666666666667     0.00000000     0.00000000
 H      1   2   0     1.092199308963   108.75293829     0.00000000
 H      1   2   3     1.092199647765   140.57039357   194.72806121
 H      2   1   3     1.016697134263    77.85417172   256.57523207

---------------------------
INTERNAL COORDINATES (A.U.)
---------------------------
 C      0   0   0     0.000000000000     0.00000000     0.00000000
 H      1   0   0     1.259817422614     0.00000000     0.00000000
 H      1   2   0     2.063957577598   108.75293829     0.00000000
 H      1   2   3     2.063958217841   140.57039357   194.72806121
 H      2   1   3     1.921279144900    77.85417172   256.57523207



           ************************************************************
           *        Program running with 4 parallel MPI-processes     *
           *              working on a common directory               *
           ************************************************************
------------------------------------------------------------------------------
                   ___                                                        
                  /   \      - P O W E R E D   B Y -                         
                 /     \                                                     
                 |  |  |   _    _      __       _____    __    __             
                 |  |  |  | |  | |    /  \     |  _  \  |  |  /  |          
                  \  \/   | |  | |   /    \    | | | |  |  | /  /          
                 / \  \   | |__| |  /  /\  \   | |_| |  |  |/  /          
                |  |  |   |  __  | /  /__\  \  |    /   |      \           
                |  |  |   | |  | | |   __   |  |    \   |  |\   \          
                \     /   | |  | | |  |  |  |  | |\  \  |  | \   \       
                 \___/    |_|  |_| |__|  |__|  |_| \__\ |__|  \__/        
                                                                              
                      - O R C A' S   B I G   F R I E N D -                    
                                      &                                       
                       - I N T E G R A L  F E E D E R -                       
                                                                              
 v1 FN, 2020, v2 2021, v3 2022-2024                                           
------------------------------------------------------------------------------


----------------------
SHARK INTEGRAL PACKAGE
----------------------

Number of atoms                             ...      5
Number of basis functions                   ...      9
Number of shells                            ...      7
Maximum angular momentum                    ...      1
Integral batch strategy                     ... SHARK/LIBINT Hybrid
RI-J (if used) integral strategy            ... SPLIT-RIJ (Revised 2003 algorithm where possible)
Printlevel                                  ...      1
Contraction scheme used                     ... SEGMENTED contraction
Prescreening option                         ... SCHWARTZ
   Thresh                                   ... 1.000e-10
   Tcut                                     ... 1.000e-11
   Tpresel                                  ... 1.000e-11 
Coulomb Range Separation                    ... NOT USED
Exchange Range Separation                   ... NOT USED
Multipole approximations                    ... NOT USED
Finite Nucleus Model                        ... NOT USED
CABS basis                                  ... NOT available
Auxiliary Coulomb fitting basis             ... NOT available
Auxiliary J/K fitting basis                 ... NOT available
Auxiliary Correlation fitting basis         ... NOT available
Auxiliary 'external' fitting basis          ... NOT available

Checking pre-screening integrals            ... done (  0.0 sec) Dimension = 7
Check shell pair data                       ... done (  0.0 sec)
Shell pair information
Shell pair cut-off parameter TPreSel        ...   1.0e-11
Total number of shell pairs                 ...        28
Shell pairs after pre-screening             ...        28
Total number of primitive shell pairs       ...       252
Primitive shell pairs kept                  ...       252
          la=0 lb=0:     21 shell pairs
          la=1 lb=0:      6 shell pairs
          la=1 lb=1:      1 shell pairs

Calculating one electron integrals          ... done (  0.0 sec)
Calculating Nuclear repulsion               ... done (  0.0 sec) ENN=     15.577374801696 Eh

Diagonalization of the overlap matrix:
Smallest eigenvalue                        ... 7.911e-02
Time for diagonalization                   ...    0.000 sec
Threshold for overlap eigenvalues          ... 1.000e-07
Number of eigenvalues below threshold      ... 0
Time for construction of square roots      ...    0.000 sec
Total time needed                          ...    0.002 sec

-------------------
DFT GRID GENERATION
-------------------

General Integration Accuracy     IntAcc      ... 4.388
Radial Grid Type                 RadialGrid  ... OptM3 with GC (2021)
Angular Grid (max. ang.)         AngularGrid ... 4 (Lebedev-302)
Angular grid pruning method      GridPruning ... 4 (adaptive)
Weight generation scheme         WeightScheme... mBecke (2022)
Basis function cutoff            BFCut       ... 1.0000e-10
Integration weight cutoff        WCut        ... 1.0000e-14
Partially contracted basis set               ... off
Rotationally invariant grid construction     ... off
Angular grids for H and He will be reduced by one unit

Total number of grid points                  ...    19208
Total number of batches                      ...      302
Average number of points per batch           ...       63
Average number of grid points per atom       ...     3842
Initializing property integral containers    ... done (  0.0 sec)

SHARK setup successfully completed in   0.1 seconds

Maximum memory used throughout the entire STARTUP-calculation: 4.9 MB


           ************************************************************
           *        Program running with 4 parallel MPI-processes     *
           *              working on a common directory               *
           ************************************************************
Occupation numbers will be reassigned to an Aufbau configuration
             **** ENERGY FILE WAS UPDATED (CH4_CASSCF_1.en.tmp) ****
Finished Guess after   0.4 sec
Maximum memory used throughout the entire GUESS-calculation: 2.0 MB


           ************************************************************
           *        Program running with 4 parallel MPI-processes     *
           *              working on a common directory               *
           ************************************************************
-------------------------------------------------------------------------------
                              ORCA-CASSCF
-------------------------------------------------------------------------------

Building the CAS space              ... done (19 configurations for Mult=1)

SYSTEM-SPECIFIC SETTINGS:
Number of active electrons          ...    4
Number of active orbitals           ...    4
Total number of electrons           ...   10
Total number of orbitals            ...    9

Determined orbital ranges:
   Internal       0 -    2 (   3 orbitals)
   Active         3 -    6 (   4 orbitals)
   External       7 -    8 (   2 orbitals)
Number of rotation parameters      ...     26

CI-STEP:
CI strategy                         ... General CI
Number of multiplicity blocks       ...    1
BLOCK  0 WEIGHT=   1.0000
  Multiplicity                      ...    1
  #(Configurations)                 ...   19
  #(CSFs)                           ...   20
  #(Roots)                          ...    1
    ROOT=0 WEIGHT=    1.000000

  PrintLevel                        ...    1
  N(GuessMat)                       ...      2048
  MaxDim(CI)                        ...        10
  MaxIter(CI)                       ...        64
  Energy Tolerance CI               ...  1.00e-08
  Residual Tolerance CI             ...  1.00e-08
  Shift(CI)                         ...  1.00e-04

INTEGRAL-TRANSFORMATION-STEP:
  Algorithm                         ... EXACT

ORBITAL-IMPROVEMENT-STEP:
  Algorithm                         ... DIIS
  Default Parametrization           ... CAYLEY
  Act-Act rotations                 ... depends on algorithm used
  FreezeIE                          ... 95.00% of ||g||
  Until reaching FreezeIE rotations with active orbitals are damped. 

  Approx. Fock at                   ... 1.000000e-05 density convergence
  Level shift                       ... energy gap dependent. Minimum=1.000
  Max. no of vectors                ... 15
  Switch step at gradient           ...  3.00e-02 
  Switch step at iteration          ...        50   
  Switch step to                    ... NR    

  Newton-Raphson/Augmented Hessian solver details:
  Solver                            ... 0
  Tol                               ... 1.0e-06
  Max. no of iterations             ... 35
  PrintLevel                        ... 1
  N(GuessMat)                       ... 512
  ExactDiagSwitch                   ... 512
  Diagonal Hessian Shift            ... 0.000e+00
  Secular equation safety shift     ... 1.000e-04
  Denominator shift in update       ... 1.000e-04
  Cutoff for Hessian matrix storage ... 1.000e-10
  Max. memory for integral trafo    ... 1024
  Max. no of expansion vectors      ... 35
  Max. DIIS vectors                 ... 12
  Preconditioner                    ... CASSCF-FOCKIAN
  SubMatrix initial guess+update    ... ON


SCF-SETTINGS:
  Incremental                       ... on
  RIJCOSX approximation             ... off
  RI-JK approximation               ... off
  AO integral handling              ... DIRECT
  Integral Neglect Thresh           ...  1.00e-10
  Primitive cutoff TCut             ...  1.00e-11
  Energy convergence tolerance      ...  1.00e-07
  Orbital gradient convergence      ...  1.00e-03
  Max. number of iterations         ...       500  


FINAL ORBITALS:
  Active   Orbitals                 ... natural 
  Internal Orbitals                 ... canonical 
  External Orbitals                 ... canonical 

------------------
CAS-SCF ITERATIONS
------------------


MACRO-ITERATION   1: 
   --- Canonicalize Internal Space
   --- Canonicalize External Space
   --- Inactive Energy E0 = -34.06307255 Eh
CI-ITERATION   0: 
   -39.299956567   0.000000000000 (    0.00)
   CI-PROBLEM SOLVED
   DENSITIES MADE

                 <<<<<<<<<<<<<<<<<<INITIAL CI STATE CHECK>>>>>>>>>>>>>>>>>>

BLOCK  0 MULT= 1 NROOTS= 1 
ROOT   0:  E=     -39.2999565666 Eh
      0.97421 [     0]: 2200
      0.01284 [     3]: 2020
      0.00802 [    15]: 0202

                 <<<<<<<<<<<<<<<<<<INITIAL CI STATE CHECK>>>>>>>>>>>>>>>>>>

   E(CAS)=   -39.299956567 Eh DE=    0.000000e+00
   --- Energy gap subspaces: Ext-Act = -0.031   Act-Int = 0.045
   --- current l-shift: Up(Ext-Act) = 2.03   Dn(Act-Int) = 1.96
   N(occ)=  1.97978 1.97003 0.02981 0.02038
   ||g|| =     9.497363e-01 Max(G)=    8.898780e-01 Rot=5,0
   --- Orbital Update [      DIIS]
   --- Density off from convergence (3.403e-02). Exact active Fock build

MACRO-ITERATION   2: 
   --- Inactive Energy E0 = -34.06358967 Eh
CI-ITERATION   0: 
   -39.298692733   0.000000000000 (    0.00)
   CI-PROBLEM SOLVED
   DENSITIES MADE
   E(CAS)=   -39.298692733 Eh DE=    1.263834e-03
   --- Energy gap subspaces: Ext-Act = -0.028   Act-Int = 0.042
   --- current l-shift: Up(Ext-Act) = 1.53   Dn(Act-Int) = 1.46
   N(occ)=  1.98019 1.97098 0.02889 0.01994
   ||g|| =     1.162660e+00 Max(G)=   -1.141279e+00 Rot=5,0
   --- Orbital Update [      DIIS]
   --- Density off from convergence (3.954e-03). Exact active Fock build

MACRO-ITERATION   3: 
   --- Inactive Energy E0 = -34.07976079 Eh
CI-ITERATION   0: 
   -39.314355382   0.000000000000 (    0.00)
   CI-PROBLEM SOLVED
   DENSITIES MADE
   E(CAS)=   -39.314355382 Eh DE=   -1.566265e-02
   --- Energy gap subspaces: Ext-Act = -0.027   Act-Int = 0.040
   --- current l-shift: Up(Ext-Act) = 1.36   Dn(Act-Int) = 1.29
   N(occ)=  1.98046 1.97147 0.02822 0.01985
   ||g|| =     5.780757e-02 Max(G)=    3.592341e-02 Rot=5,0
   --- Orbital Update [      DIIS]
   --- SFit(Active Orbitals)
   --- Density off from convergence (9.053e-03). Exact active Fock build

MACRO-ITERATION   4: 
   --- Inactive Energy E0 = -34.08303904 Eh
CI-ITERATION   0: 
   -39.314573841   0.000000000000 (    0.00)
   CI-PROBLEM SOLVED
   DENSITIES MADE
   E(CAS)=   -39.314573841 Eh DE=   -2.184584e-04
   --- Energy gap subspaces: Ext-Act = -0.026   Act-Int = 0.040
   --- current l-shift: Up(Ext-Act) = 1.03   Dn(Act-Int) = 0.96
   N(occ)=  1.98043 1.97139 0.02830 0.01987
   ||g|| =     2.534963e-02 Max(G)=   -1.370877e-02 Rot=7,1
   --- Orbital Update [      DIIS]
   --- SFit(Active Orbitals)
   --- Density off from convergence (7.257e-04). Exact active Fock build

MACRO-ITERATION   5: 
   ===>>> Convergence to 3.0e-02 achieved - switching to Step=NR
   two electron integrals
   --- Inactive Energy E0 = -34.08755689 Eh
CI-ITERATION   0: 
   -39.314624828   0.000000000000 (    0.00)
   CI-PROBLEM SOLVED
   DENSITIES MADE
   E(CAS)=   -39.314624828 Eh DE=   -5.098709e-05
   --- Energy gap subspaces: Ext-Act = -0.026   Act-Int = 0.041
   --- current l-shift: Up(Ext-Act) = 1.03   Dn(Act-Int) = 0.96
   N(occ)=  1.98040 1.97130 0.02840 0.01990
   ||g|| =     4.484871e-02 Max(G)=   -3.263273e-02 Rot=8,0
   --- Orbital Update [        NR]
   --- SFit(Active Orbitals)
   --- Density off from convergence (3.555e-04). Exact active Fock build

MACRO-ITERATION   6: 
   two electron integrals
   --- Inactive Energy E0 = -34.09487215 Eh
CI-ITERATION   0: 
   -39.314672295   0.000000000000 (    0.00)
   CI-PROBLEM SOLVED
   DENSITIES MADE
   E(CAS)=   -39.314672295 Eh DE=   -4.746703e-05
   --- Energy gap subspaces: Ext-Act = -0.025   Act-Int = 0.043
   --- current l-shift: Up(Ext-Act) = 1.03   Dn(Act-Int) = 0.96
   N(occ)=  1.98037 1.97122 0.02849 0.01993
   ||g|| =     2.526868e-04 Max(G)=    1.215206e-04 Rot=7,3
                     ---- THE CAS-SCF GRADIENT HAS CONVERGED ----
                            --- FINALIZING ORBITALS ---
                    ---- DOING ONE FINAL ITERATION FOR PRINTING ----
   --- Canonicalize Internal Space
   --- Canonicalize External Space

MACRO-ITERATION   7: 
   --- Inactive Energy E0 = -34.09487215 Eh
   --- All densities will be recomputed
CI-ITERATION   0: 
   -39.314672295   0.000000000000 (    0.00)
   CI-PROBLEM SOLVED
   DENSITIES MADE
   E(CAS)=   -39.314672295 Eh DE=   -3.552714e-14
   --- Energy gap subspaces: Ext-Act = -0.029   Act-Int = 0.026
   --- current l-shift: Up(Ext-Act) = 1.03   Dn(Act-Int) = 0.97
   N(occ)=  1.98040 1.97122 0.02845 0.01992
   ||g|| =     2.526868e-04 Max(G)=    1.284945e-04 Rot=7,3
--------------
CASSCF RESULTS
--------------

Final CASSCF energy       : -39.314672295 Eh   -1069.8066 eV


---------------------------------------------
CAS-SCF STATES FOR BLOCK  0 MULT= 1 NROOTS= 1
---------------------------------------------

ROOT   0:  E=     -39.3146722947 Eh
      0.97596 [     0]: 2200
      0.01278 [     3]: 2020
      0.00817 [    15]: 0202


--------------
DENSITY MATRIX
--------------

                  0          1          2          3    
      0       1.980404  -0.000000  -0.000000  -0.000000
      1      -0.000000   1.971224   0.000000  -0.000000
      2      -0.000000   0.000000   0.028450   0.000000
      3      -0.000000  -0.000000   0.000000   0.019921
Trace of the electron density:  4.000000

-----------------
ENERGY COMPONENTS
-----------------

One electron energy          :    -82.270219914 Eh       -2238.6865 eV
Two electron energy          :     27.378172817 Eh         744.9980 eV
Nuclear repulsion energy     :     15.577374802 Eh         423.8819 eV
                               ----------------
                                  -39.314672295

Kinetic energy               :     40.281086170 Eh        1096.1041 eV
Potential energy             :    -79.595758465 Eh       -2165.9107 eV
Virial ratio                 :     -1.976008247 
                               ----------------
                                  -39.314672295

Core energy                  :    -34.094872154 Eh     -927.7686 eV


----------------------------
LOEWDIN REDUCED ACTIVE MOs  
----------------------------

                      0         1         2         3         4         5   
                 -11.05427  -0.92667  -0.61836  -0.59217  -0.49839   0.61525
                   2.00000   2.00000   2.00000   1.98040   1.97122   0.02845
                  --------  --------  --------  --------  --------  --------
 0 C  s              99.5      30.0       6.1       8.6       0.0       2.8
 0 C  pz              0.0      14.3      36.9       6.8       0.1       0.2
 0 C  px              0.0       4.8      11.8      37.4       3.1       4.5
 0 C  py              0.0       0.7       1.6       1.4      53.8      34.9
 1 H  s               0.5      41.1       3.8       0.0       0.0       2.6
 2 H  s               0.0       0.5       0.1      43.9       2.4       0.0
 3 H  s               0.0       5.8      39.7       0.1       0.2       0.2
 4 H  s               0.0       2.9       0.0       1.7      40.4      54.8

                      6   
                   0.70222
                   0.01992
                  --------
 0 C  s              12.0
 0 C  pz              5.5
 0 C  px             22.3
 0 C  py              6.9
 2 H  s              53.1

-------------------------------------------------------------
 Forming the transition density       ... done in 0.0 sec
-------------------------------------------------------------
Memory for address arrays  		      ... done
Make address arrays			      ... done
Memory for buffers 			      ... done
Setting up spin-function prototypes	      ... (MAXOPEN=4) 0 2 4 6 done
Trivial cases - DOMO's			      ... done (  0.0 MB)
Number of open shells			    ...  0
domo->virtual excitations			... done (  0.0 MB)
domo->somo excitations				... done (  0.0 MB)
somo->virtual excitations			... done (  0.0 MB)
somo->somo excitations				... done (  0.0 MB)
Number of open shells			    ...  2
domo->virtual excitations			... done (  0.0 MB)
domo->somo excitations				... done (  0.0 MB)
somo->virtual excitations			... done (  0.0 MB)
somo->somo excitations				... done (  0.0 MB)
Number of open shells			    ...  4
domo->virtual excitations			... done (  0.0 MB)
domo->somo excitations				... done (  0.0 MB)
somo->virtual excitations			... done (  0.0 MB)
somo->somo excitations				... done (  0.0 MB)
Coupling container construction done

--------------
CASSCF TIMINGS
--------------

Total time                       ...        0.5 sec
Sum of individual times          ...        0.5 sec ( 84.0%)

Calculation of AO operators
   F(Core) operator              ...        0.0 sec (  1.3%)
   G(Act) operator               ...        0.0 sec (  1.3%)
Calculation of MO transformed quantities
   J(MO) operators               ...        0.0 sec (  6.8%)
   (pq|rs) integrals             ...        0.0 sec (  0.1%)
   (ij|ab),(ia|jb) integrals     ...        0.2 sec ( 38.7%)
   AO->MO one electron integrals ...        0.0 sec (  0.0%)
Configuration interaction steps
   CI-setup phase                ...        0.0 sec (  2.5%)
   CI-solution phase             ...        0.1 sec ( 27.1%)
   Generation of densities       ...        0.0 sec (  0.2%)
Orbital improvement steps
   Orbital gradient              ...        0.0 sec (  0.2%)
   O(1) converger                ...        0.0 sec (  0.4%)
   O(2) converger                ...        0.0 sec (  4.8%)
CPCM steps
   Total CPCM time               ...        0.0 sec (  0.3%)
Properties                       ...        0.0 sec (  0.4%)
   SOC integral calculation      ...        0.0 sec (  0.0%)
   SSC RMEs (incl. integrals)    ...        0.0 sec (  0.0%)
   SOC RMEs                      ...        0.0 sec (  0.0%)

Maximum memory used throughout the entire CASSCF-calculation: 30.0 MB


           ************************************************************
           *        Program running with 4 parallel MPI-processes     *
           *              working on a common directory               *
[...]

   E(CAS)=   -39.551748534 Eh DE=    0.000000e+00
   --- Energy gap subspaces: Ext-Act = 0.002   Act-Int = -0.067
   --- current l-shift: Up(Ext-Act) = 2.00   Dn(Act-Int) = 2.07
   N(occ)=  1.97945 1.10061 0.89949 0.02045
   ||g|| =     2.180913e-02 Max(G)=    1.137026e-02 Rot=5,1
   --- Orbital Update [      DIIS]
   --- Density off from convergence (8.995e-01). Exact active Fock build

MACRO-ITERATION   2: 
   ===>>> Convergence to 3.0e-02 achieved - switching to Step=NR
   two electron integrals
   --- Inactive Energy E0 = -35.37115669 Eh
CI-ITERATION   0: 
   -39.551857192   0.000000000000 (    0.00)
   CI-PROBLEM SOLVED
   DENSITIES MADE
   E(CAS)=   -39.551857192 Eh DE=   -1.086576e-04
   --- Energy gap subspaces: Ext-Act = 0.002   Act-Int = -0.067
   --- current l-shift: Up(Ext-Act) = 1.50   Dn(Act-Int) = 1.57
   N(occ)=  1.97945 1.10133 0.89877 0.02045
   ||g|| =     1.056141e-02 Max(G)=   -5.564167e-03 Rot=5,2
   --- Orbital Update [        NR]
   --- Density off from convergence (7.217e-04). Exact active Fock build

MACRO-ITERATION   3: 
   two electron integrals
   --- Inactive Energy E0 = -35.37145445 Eh
CI-ITERATION   0: 
   -39.551882425   0.000000000000 (    0.00)
   CI-PROBLEM SOLVED
   DENSITIES MADE
   E(CAS)=   -39.551882425 Eh DE=   -2.523364e-05
   --- Energy gap subspaces: Ext-Act = 0.002   Act-Int = -0.067
   --- current l-shift: Up(Ext-Act) = 1.33   Dn(Act-Int) = 1.40
   N(occ)=  1.97945 1.10150 0.89860 0.02046
   ||g|| =     2.003241e-04 Max(G)=    1.691194e-04 Rot=5,1
                     ---- THE CAS-SCF GRADIENT HAS CONVERGED ----
                            --- FINALIZING ORBITALS ---
                    ---- DOING ONE FINAL ITERATION FOR PRINTING ----
   --- Canonicalize Internal Space
   --- Canonicalize External Space

MACRO-ITERATION   4: 
   --- Inactive Energy E0 = -35.37145445 Eh
   --- All densities will be recomputed
CI-ITERATION   0: 
   -39.551882425   0.000000000000 (    0.00)
   CI-PROBLEM SOLVED
   DENSITIES MADE
   E(CAS)=   -39.551882425 Eh DE=    1.705303e-13
   --- Energy gap subspaces: Ext-Act = 0.002   Act-Int = -0.070
   --- current l-shift: Up(Ext-Act) = 1.00   Dn(Act-Int) = 1.07
   N(occ)=  1.97945 1.10150 0.89860 0.02046
   ||g|| =     2.003241e-04 Max(G)=   -1.697910e-04 Rot=5,1
--------------
CASSCF RESULTS
--------------

Final CASSCF energy       : -39.551882425 Eh   -1076.2614 eV


---------------------------------------------
CAS-SCF STATES FOR BLOCK  0 MULT= 1 NROOTS= 1
---------------------------------------------

ROOT   0:  E=     -39.5518824252 Eh
      0.54460 [     0]: 2200
      0.44401 [     3]: 2020
      0.00483 [    15]: 0202
      0.00398 [    18]: 0022


--------------
DENSITY MATRIX
--------------

                  0          1          2          3    
      0       1.979448  -0.000000   0.000000   0.000000
      1      -0.000000   1.101500  -0.000000   0.000000
      2       0.000000  -0.000000   0.898597  -0.000000
      3       0.000000   0.000000  -0.000000   0.020456
Trace of the electron density:  4.000000

-----------------
ENERGY COMPONENTS
-----------------

One electron energy          :    -74.707841300 Eh       -2032.9037 eV
Two electron energy          :     24.006492513 Eh         653.2499 eV
Nuclear repulsion energy     :     11.149466362 Eh         303.3924 eV
                               ----------------
                                  -39.551882425

Kinetic energy               :     39.781581274 Eh        1082.5119 eV
Potential energy             :    -79.333463699 Eh       -2158.7733 eV
Virial ratio                 :     -1.994226000 
                               ----------------
                                  -39.551882425

Core energy                  :    -35.371454450 Eh     -962.5062 eV


----------------------------
LOEWDIN REDUCED ACTIVE MOs  
----------------------------

                      0         1         2         3         4         5   
                 -11.00696  -0.78395  -0.51167  -0.58122  -0.08817  -0.04161
                   2.00000   2.00000   2.00000   1.97945   1.10150   0.89860
                  --------  --------  --------  --------  --------  --------
 0 C  s              99.9      38.3       0.0      10.3       6.0       6.7
 0 C  pz              0.0       0.5      26.9       1.5      19.2      20.5
 0 C  px              0.0       2.8      14.1      24.6       8.9       8.6
 0 C  py              0.0      10.1      10.2      14.9      14.9      13.6
 1 H  s               0.0       0.0       0.0       0.0      50.2      49.7
 2 H  s               0.0       0.8       0.0      47.9       0.2       0.2
 3 H  s               0.0      23.7      24.4       0.4       0.2       0.3
 4 H  s               0.0      23.7      24.4       0.4       0.3       0.2

                      6   
                   0.72173
                   0.02046
                  --------
 0 C  s              13.2
 0 C  px             24.7
 0 C  py              7.8
 2 H  s              50.8

-------------------------------------------------------------
 Forming the transition density       ... done in 0.0 sec
-------------------------------------------------------------
Memory for address arrays  		      ... done
Make address arrays			      ... done
Memory for buffers 			      ... done
Setting up spin-function prototypes	      ... (MAXOPEN=4) 0 2 4 6 done
Trivial cases - DOMO's			      ... done (  0.0 MB)
Number of open shells			    ...  0
domo->virtual excitations			... done (  0.0 MB)
domo->somo excitations				... done (  0.0 MB)
somo->virtual excitations			... done (  0.0 MB)
somo->somo excitations				... done (  0.0 MB)
Number of open shells			    ...  2
domo->virtual excitations			... done (  0.0 MB)
domo->somo excitations				... done (  0.0 MB)
somo->virtual excitations			... done (  0.0 MB)
somo->somo excitations				... done (  0.0 MB)
Number of open shells			    ...  4
domo->virtual excitations			... done (  0.0 MB)
domo->somo excitations				... done (  0.0 MB)
somo->virtual excitations			... done (  0.0 MB)
somo->somo excitations				... done (  0.0 MB)
Coupling container construction done

--------------
CASSCF TIMINGS
--------------

Total time                       ...        0.4 sec
Sum of individual times          ...        0.4 sec ( 85.2%)

Calculation of AO operators
   F(Core) operator              ...        0.0 sec (  1.0%)
   G(Act) operator               ...        0.0 sec (  0.8%)
Calculation of MO transformed quantities
   J(MO) operators               ...        0.0 sec (  3.8%)
   (pq|rs) integrals             ...        0.0 sec (  0.1%)
   (ij|ab),(ia|jb) integrals     ...        0.2 sec ( 51.5%)
   AO->MO one electron integrals ...        0.0 sec (  0.0%)
Configuration interaction steps
   CI-setup phase                ...        0.0 sec (  4.0%)
   CI-solution phase             ...        0.1 sec ( 18.1%)
   Generation of densities       ...        0.0 sec (  0.2%)
Orbital improvement steps
   Orbital gradient              ...        0.0 sec (  0.1%)
   O(1) converger                ...        0.0 sec (  0.2%)
   O(2) converger                ...        0.0 sec (  4.8%)
CPCM steps
   Total CPCM time               ...        0.0 sec (  0.2%)
Properties                       ...        0.0 sec (  0.3%)
   SOC integral calculation      ...        0.0 sec (  0.0%)
   SSC RMEs (incl. integrals)    ...        0.0 sec (  0.0%)
   SOC RMEs                      ...        0.0 sec (  0.0%)

Maximum memory used throughout the entire CASSCF-calculation: 30.0 MB


           ************************************************************
           *        Program running with 4 parallel MPI-processes     *
           *              working on a common directory               *
           ************************************************************

------------------------------------------------------------------------------
                         ORCA PROPERTY INTEGRAL CALCULATIONS
------------------------------------------------------------------------------

GBWName                                   ... CH4_CASSCF_1.gbw
Number of atoms                           ...      5
Number of basis functions                 ...      9
Max core memory                           ...   1024 MB

Dipole integrals                          ... YES
Quadrupole integrals                      ...  NO
Linear momentum integrals                 ...  NO
Angular momentum integrals                ... YES
Higher moments length integrals           ...  NO
Higher moments velocity integrals         ...  NO
Kinetic energy integrals                  ...  NO
GIAO right hand sides                     ...  NO
GIAO dipole derivative integrals          ...  NO
SOC integrals                             ...  NO
EPR diamagnetic integrals (GIAO)          ...  NO
EPR gauge integrals                       ...  NO
Field gradient integrals                  ...  NO (   0 nuclei)
Spin-dipole/Fermi contact integrals       ...  NO (   0 nuclei)
Contact density integrals                 ...  NO (   0 nuclei)
Nucleus-orbit integrals                   ...  NO (   0 nuclei)
Geometric perturbations                   ...  NO (   5 nuclei)

Choice of electric origin   ... Center of mass
Position of electric origin ... ( -0.0589,  0.0748,  0.2681) 
Choice of magnetic origin   ... GIAO
Position of magnetic origin ... (  0.0000,  0.0000,  0.0000) 

Calculating integrals                     ... Electric Dipole (Length)     done (  0.0 sec)
Calculating integrals                     ... Angular Momentum  (ElOri)    done (  0.0 sec)

Property integrals calculated in   0.0 sec

Maximum memory used throughout the entire PROPINT-calculation: 2.1 MB


           ************************************************************
           *        Program running with 4 parallel MPI-processes     *
           *              working on a common directory               *
           ************************************************************
-------------------------------------------------------------------------------
                              ORCA-CASSCF
-------------------------------------------------------------------------------

Setting up the integral package     ... done


==========================================
CASSCF UV, CD spectra and dipole moments
==========================================

--------------
CASSCF TIMINGS
--------------

Total time                       ...        0.1 sec
Sum of individual times          ...        0.1 sec ( 98.9%)

Calculation of AO operators
Calculation of MO transformed quantities
Configuration interaction steps
   CI-setup phase                ...        0.1 sec ( 98.9%)
Orbital improvement steps
Properties                       ...        0.0 sec (  0.0%)
   SOC integral calculation      ...        0.0 sec (  0.0%)
   SSC RMEs (incl. integrals)    ...        0.0 sec (  0.0%)
   SOC RMEs                      ...        0.0 sec (  0.0%)

Maximum memory used throughout the entire CASSCF-calculation: 24.7 MB

-------------------------   --------------------
FINAL SINGLE POINT ENERGY       -39.551882425184
-------------------------   --------------------

Storing actual gbw-file in CH4_CASSCF_1.016.gbw ... done


           ************************************************************
           *        Program running with 4 parallel MPI-processes     *
           *              working on a common directory               *
           ************************************************************

------------------------------------------------------------------------------
                              ORCA PROPERTY CALCULATIONS
------------------------------------------------------------------------------

GBWName                                 ... CH4_CASSCF_1.gbw
Number of atoms                         ...      5
Number of basis functions               ...      9
Max core memory                         ...   1024 MB

Electric properties:
Dipole moment                           ... YES
Quadrupole moment                       ...  NO
Static polarizability (Dipole/Dipole)   ...  NO
Static polarizability (Dipole/Quad.)    ...  NO
Static polarizability (Quad./Quad.)     ...  NO
Static polarizability (Velocity)        ...  NO

Atomic electric properties:
Dipole moment                           ...  NO
Quadrupole moment                       ...  NO
Static polarizability                   ...  NO

Choice of electric origin               ... Center of mass
Position of electric origin             ...    -0.058854     0.074778     0.268101

General magnetic properties:
Magnetizability                         ...  NO

EPR properties:
g-Tensor (aka g-matrix)                 ...  NO
Zero-Field splitting spin-orbit         ...  NO
Zero-field splitting spin-spin          ...  NO
Hyperfine couplings                     ...  NO (   0 nuclei)
Quadrupole couplings                    ...  NO (   0 nuclei)
Contact density                         ...  NO (   0 nuclei)

NMR properties:
Chemical shifts                         ...  NO (   0 nuclei)
Spin-rotation constants                 ...  NO (   0 nuclei)
Spin-spin couplings                     ...  NO (   0 nuclei,    0 pairs)

Choice of magnetic origin               ... GIAO
Position of magnetic origin             ...     0.000000     0.000000     0.000000

Properties with geometric perturbations:
SCF Hessian                             ...  NO
IR spectrum                             ...  NO
VCD spectrum                            ...  NO
X-ray spectroscopy properties:
SCF XES/XAS/RIXS spectra                ...  NO


-------------
DIPOLE MOMENT
-------------

Method             : CASSCF
Type of density    : Electron Density
Level              : Relaxed density
State              :   0
Multiplicity       :   1
Irrep              :   0
Energy             :   -39.5518824251843810 Eh
Relativity type    : 
Basis              : AO
                                X                 Y                 Z
Electronic contribution:      0.293242441      -0.371047219      -1.670299610
Nuclear contribution   :     -0.348161900       0.442360076       1.585997906
                        -----------------------------------------
Total Dipole Moment    :     -0.054919459       0.071312858      -0.084301703
                        -----------------------------------------
Magnitude (a.u.)       :      0.123322536
Magnitude (Debye)      :      0.313460975



--------------------
Rotational spectrum 
--------------------
 
Rotational constants in cm-1:             6.764791             1.573646             1.475244 
Rotational constants in MHz :        202803.319113         47176.711548         44226.700315 

Dipole components along the rotational axes: 
x,y,z [a.u.] :    -0.079286    -0.000949    -0.094452 
x,y,z [Debye]:    -0.201529    -0.002412    -0.240079 

 

Dipole moment calculation done in   0.0 sec 

Maximum memory used throughout the entire PROP-calculation: 2.5 MB
                              **** TRAJECTORY DONE ***

                         SUMMARY OF THE CALCULATED SURFACE

------------------
TRAJECTORY RESULTS
------------------

Column   1: R

The Calculated Surface using the 'Actual Energy'
   0.50000000 -38.62882028
   0.66666667 -39.31467229
   0.83333333 -39.57018472
   1.00000000 -39.65038609
   1.16666667 -39.65655316
   1.33333333 -39.63077648
   1.50000000 -39.59195783
   1.66666667 -39.54923556
   1.83333333 -39.58225554
   2.00000000 -39.56972154
   2.16666667 -39.56181558
   2.33333333 -39.55716288
   2.50000000 -39.55453844
   2.66666667 -39.55309170
   2.83333333 -39.55230494
   3.00000000 -39.55188243

The Calculated Surface using the SCF energy
   0.50000000 -38.62882028
   0.66666667 -39.31467229
   0.83333333 -39.57018472
   1.00000000 -39.65038609
   1.16666667 -39.65655316
   1.33333333 -39.63077648
   1.50000000 -39.59195783
   1.66666667 -39.54923556
   1.83333333 -39.58225554
   2.00000000 -39.56972154
   2.16666667 -39.56181558
   2.33333333 -39.55716288
   2.50000000 -39.55453844
   2.66666667 -39.55309170
   2.83333333 -39.55230494
   3.00000000 -39.55188243


--------------------------------
SUGGESTED CITATIONS FOR THIS RUN
--------------------------------

Below you find a list of papers that are relevant to this ORCA run
We neither can nor want to force you to cite these papers, but we appreciate if you do
You receive ORCA, which is the product of decades of hard work by many enthusiastic individuals, for free
The only thing we kindly ask in return is that you cite our papers,
We deeply appreciate it, if you show your appreciation for ORCA by not just citing the generic ORCA reference.

Please note that relegating all ORCA citations to the supporting information does *not* help us.
SI sections are not indexed - citations you put there will not count into any citation statistics
But we need these citations in order to attract the funding resources that allow us to do what we are doing

Therefore, if you are a happy ORCA user, please consider citing a few of the papers listed below in the main body of your paper

In addition to the list printed below, the program has created the file CH4_CASSCF_1.bibtex that contains the list in bibtex format
You can import this file easily into all common literature databanks and citation aid programs


List of essential papers. We consider these as the minimum necessary citations

  1. Neese,F.
     Software update: the ORCA program system, version 5.0
     WIRES Comput. Molec. Sci., 2022 12(1)e1606
     doi.org/10.1002/wcms.1606

List of papers to cite with high priority. The work reported in these papers was absolutely
necessary for this run to complete.
Our perspective: the developers of density functionals and basis sets usually get cited in chemistry papers
Good! But without the algorithms to do something with them, the functionals or basis sets would not do anything.
Hence, in our opinion, the algorithm design and method developments papers are equally worthy of getting cited

  1. Neese,F.
     The SHARK Integral Generation and Digestion System
     J. Comp. Chem., 2022  1-16
     doi.org/10.1002/jcc.26942
  2. Ugandi,M.; Roemelt,M.
     A recursive formulation of one-electron coupling coefficients for spin-adapted configuration interaction calculations featuring many unpaired electrons
     Int. J. Quantum Chem., 2023 123 e27045
     doi.org/10.1002/qua.27045

List of suggested additional citations. These are papers that are important in the 'surrounding' of 
of this run, or papers that preceded the highly important papers. If you like your results we are grateful for a citation.

  1. Neese,F.
     The ORCA program system
     WIRES Comput. Molec. Sci., 2012 2(1)73-78
     doi.org/10.1002/wcms.81
  2. Neese,F.
     Software update: the ORCA program system, version 4.0
     WIRES Comput. Molec. Sci., 2018 8(1)1-6
     doi.org/10.1002/wcms.1327
  3. Neese,F.; Wennmohs,F.; Becker,U.; Riplinger,C.
     The ORCA quantum chemistry program package
     J. Chem. Phys., 2020 152 Art. No. L224108
     doi.org/10.1063/5.0004608

List of optional additional citations

  1. Neese,F.
     Approximate second-order SCF convergence for spin unrestricted wavefunctions
     Chem. Phys. Lett., 2000 325(1-3)93-98
     doi.org/10.1016/s0009-2614(00)00662-x

Timings for individual modules:

Sum of individual times          ...       80.566 sec (=   1.343 min)
Startup calculation              ...       12.612 sec (=   0.210 min)  15.7 %
SCF iterations                   ...       11.318 sec (=   0.189 min)  14.0 %
CASSCF iterations                ...       34.129 sec (=   0.569 min)  42.4 %
Property integrals               ...       11.378 sec (=   0.190 min)  14.1 %
Property calculations            ...       11.130 sec (=   0.185 min)  13.8 %
                             ****ORCA TERMINATED NORMALLY****
TOTAL RUN TIME: 0 days 0 hours 1 minutes 32 seconds 539 msec
