
                                 *****************
                                 * O   R   C   A *
                                 *****************

                                            #,                                       
                                            ###                                      
                                            ####                                     
                                            #####                                    
                                            ######                                   
                                           ########,                                 
                                     ,,################,,,,,                         
                               ,,#################################,,                 
                          ,,##########################################,,             
                       ,#########################################, ''#####,          
                    ,#############################################,,   '####,        
                  ,##################################################,,,,####,       
                ,###########''''           ''''###############################       
              ,#####''   ,,,,##########,,,,          '''####'''          '####       
            ,##' ,,,,###########################,,,                        '##       
           ' ,,###''''                  '''############,,,                           
         ,,##''                                '''############,,,,        ,,,,,,###''
      ,#''                                            '''#######################'''  
     '                                                          ''''####''''         
             ,#######,   #######,   ,#######,      ##                                
            ,#'     '#,  ##    ##  ,#'     '#,    #''#        ,####,   ,####,        
            ##       ##  ##   ,#'  ##            #'  '#       #'       #'  '#        
            ##       ##  #######   ##           ,######,      #####,   #    #        
            '#,     ,#'  ##    ##  '#,     ,#' ,#      #,     #,   #   #,  ,#        
             '#######'   ##     ##  '#######'  #'      '#     '####' # '####'        



                #########################################################
                #                        -***-                          #
                #          Department of theory and spectroscopy        #
                #                                                       #
                #                      Frank Neese                      #
                #                                                       #
                #     Directorship, Architecture, Infrastructure        #
                #                    SHARK, DRIVERS                     #
                #        Core code/Algorithms in most modules           #
                #                                                       #
                #        Max Planck Institute fuer Kohlenforschung      #
                #                Kaiser Wilhelm Platz 1                 #
                #                 D-45470 Muelheim/Ruhr                 #
                #                      Germany                          #
                #                                                       #
                #                  All rights reserved                  #
                #                        -***-                          #
                #########################################################


                         Program Version 6.0.1  -  RELEASE   -


 With contributions from (in alphabetic order):
[Max-Planck-Institut fuer Kohlenforschung]                               
  Daniel Aravena         : Magnetic Suceptibility                        
  Michael Atanasov       : Ab Initio Ligand Field Theory (pilot matlab implementation)
  Alexander A. Auer      : GIAO ZORA, VPT2 properties, NMR spectrum      
  Ute Becker             : All parallelization in ORCA, NUMFREQ, NUMCALC 
  Giovanni Bistoni       : ED, misc. LED, open-shell LED, HFLD           
  Martin Brehm           : Molecular dynamics                            
  Dmytro Bykov           : pre 5.0 version of the SCF Hessian            
  Marcos Casanova-Páez   : Triplet and SCS-CIS(D). UHF-(DLPNO)-IP/EA/STEOM-CCSD. UHF-CVS-IP/STEOM-CCSD   
  Vijay G. Chilkuri      : MRCI spin determinant printing, contributions to CSF-ICE 
  Pauline Colinet        : FMM embedding                                 
  Dipayan Datta          : RHF DLPNO-CCSD density                        
  Achintya Kumar Dutta   : EOM-CC, STEOM-CC                              
  Nicolas Foglia         : Exact transition moments, OPA infrastructure, MCD improvements    
  Dmitry Ganyushin       : Spin-Orbit,Spin-Spin,Magnetic field MRCI      
  Miquel Garcia-Rates    : C-PCM and meta-GGA Hessian, CCSD/C-PCM, Gaussian charge scheme 
  Tiago L. C. Gouveia    : GS-ROHF, GS-ROCIS                             
  Yang Guo               : DLPNO-NEVPT2, F12-NEVPT2, CIM, IAO-localization        
  Andreas Hansen         : Spin unrestricted coupled pair/coupled cluster methods 
  Ingolf Harden          : AUTO-CI MPn and infrastructure                
  Benjamin Helmich-Paris : MC-RPA, TRAH-(SCF,CASSCF), AVAS, COSX integrals, SCF dyn. polar. 
  Lee Huntington         : MR-EOM, pCC                                   
  Robert Izsak           : Overlap fitted RIJCOSX, COSX-SCS-MP3, EOM     
  Riya Kayal             : Wick's Theorem for AUTO-CI, AUTO-CI UHF-CCSDT 
  Emily Kempfer          : AUTO-CI, RHF CISDT and CCSDT                  
  Christian Kollmar      : KDIIS, OOCD, Brueckner-CCSD(T), CCSD density, CASPT2, CASPT2-K, improved NEVPT2 
  Axel Koslowski         : Symmetry handling                             
  Simone Kossmann        : meta-GGA functionals, TD-DFT gradient, OOMP2, (MP2 Hessian; deprecated post 5.0) 
  Lucas Lang             : DCDCAS                                        
  Marvin Lechner         : AUTO-CI (C++ implementation), FIC-MRCC        
  Spencer Leger          : CASSCF response                               
  Dagmar Lenk            : GEPOL surface, SMD, ORCA-2-JSON               
  Dimitrios Liakos       : Extrapolation schemes; Compound Job, initial MDCI parallelization 
  Dimitrios Manganas     : Further ROCIS development; embedding schemes. LFT, Crystal Embedding 
  Dimitrios Pantazis     : SARC Basis sets                               
  Anastasios Papadopoulos: AUTO-CI, single reference methods and gradients 
  Taras Petrenko         : pre 6.0 DFT Hessian and TD-DFT gradient, (ASA, deprecated), ECA, 1-Electron XAS/XES, NRVS 
  Peter Pinski           : DLPNO-MP2, DLPNO-MP2 Gradient                 
  Christoph Reimann      : Effective Core Potentials                     
  Marius Retegan         : Local ZFS, SOC                                
  Christoph Riplinger    : Optimizer, TS searches, QM/MM, DLPNO-CCSD(T), (RO)-DLPNO pert. Triples 
  Michael Roemelt        : Original ROCIS implementation                 
  Masaaki Saitow         : Open-shell DLPNO-CCSD energy and density      
  Barbara Sandhoefer     : DKH picture change effects                    
  Kantharuban Sivalingam : CASSCF convergence/infrastructure, NEVPT2 and variants, FIC-MRCI 
  Bernardo de Souza      : ESD, SOC TD-DFT                               
  Georgi L. Stoychev     : AutoAux, RI-MP2 NMR, DLPNO-MP2 response, X2C  
  Van Anh Tran           : RI-MP2 g-tensors                              
  Willem Van den Heuvel  : Paramagnetic NMR                              
  Zikuan Wang            : NOTCH, Electric field optimization            
  Frank Wennmohs         : Technical directorship and infrastructure     
  Hang Xu                : AUTO-CI-Response properties                   
                                                                         
[FACCTs GmbH]                                                            
  Markus Bursch, Miquel Garcia-Rates, Christoph Riplinger, Bernardo de Souza, Georgi L. Stoychev 
                                                                 
  APM, Basis sets (HGBS, AHGBS, def-TZVP (Ac-Lr), def2-XVPD (La-Lu)), CI-OPT, improved COSX, DLPNO-Multilevel,           
  DOCKER, DRACO, updates on ESD, GOAT, IRC, LR-CPCM, MBIS, meta-GGA TD-DFT gradient, ML-optimized integration grids, 
  MM, NACMEs, nearIR, NEB, NEB-TS, NL-DFT gradient (VV10), 2- and 3-layer-ONIOM, interface openCOSMO-RS, QMMM,   
  Crystal-QMMM, SF, symmetry and pop. for TD-DFT, r2SCAN hybrids, SOLVATOR                                   
                                                                         
[Other institutions]                                                     
  V. Asgeirsson          : NEB                                           
  Christoph Bannwarth    : sTDA-DFT, sTD-DFT, PBEh-3c, B97-3c, D3        
  Sebastian Ehlert       : rSCAN, r2SCAN, r2SCAN-3c, D4, dhf basis sets  
  Marvin Friede          : D4 for Fr, Ra, Ac-Lr                          
  Lars Goerigk           : TD-DFT with DH, B97 family of functionals     
  Stefan Grimme          : VdW corrections, initial TS optimization, DFT functionals, gCP, sTDA/sTD-DF 
  Waldemar Hujo          : DFT-NL                                        
  H. Jonsson             : NEB                                           
  Holger Kruse           : gCP                                           
  Marcel Mueller         : wB97X-3c, vDZP basis set                      
  Hagen Neugebauer       : wr2SCAN                                       
  Tobias Risthaus        : range-separated hybrid DFT                    
  Lukas Wittmann         : regularized MP2, r2SCAN double-hybrids, wr2SCAN        
                                                                         
We gratefully acknowledge several colleagues who have allowed us to      
interface, adapt or use parts of their codes:                            
  Ed Valeev, F. Pavosevic, A. Kumar             : LibInt (2-el integral package), F12 methods 
  Garnet Chan, S. Sharma, J. Yang, R. Olivares  : DMRG                   
  Ulf Ekstrom                                   : XCFun DFT Library      
  Mihaly Kallay                                 : mrcc  (arbitrary order and MRCC methods)
  Frank Weinhold                                : gennbo (NPA and NBO analysis)           
  Simon Mueller                                 : openCOSMO-RS                            
  Christopher J. Cramer and Donald G. Truhlar   : smd solvation model                     
  S Lehtola, MJT Oliveira, MAL Marques          : LibXC Library                           
  Liviu Ungur et al                             : ANISO software                          


 Your calculation uses the libint2 library for the computation of 2-el integrals
 For citations please refer to: http://libint.valeyev.net

 Your ORCA version has been built with support for libXC version: 6.2.2
 For citations please refer to: https://libxc.gitlab.io

 This ORCA versions uses:
   CBLAS   interface :  Fast vector & matrix operations
   LAPACKE interface :  Fast linear algebra routines
   SCALAPACK package :  Parallel linear algebra routines
   Shared memory     :  Shared parallel matrices
   BLAS/LAPACK       :  OpenBLAS 0.3.27  USE64BITINT DYNAMIC_ARCH NO_AFFINITY SkylakeX SINGLE_THREADED
        Core in use  :  SkylakeX
   Copyright (c) 2011-2014, The OpenBLAS Project


================================================================================

----- Orbital basis set information -----
Your calculation utilizes the basis: STO-3G
   H-Ne       : W. J. Hehre, R. F. Stewart and J. A. Pople, J. Chem. Phys. 2657 (1969).
   Na-Ar      : W. J. Hehre, R. Ditchfield, R. F. Stewart and J. A. Pople, J. Chem. Phys. 2769 (1970).
   K,Ca,Ga-Kr : W. J. Pietro, B. A. Levy, W. J. Hehre and R. F. Stewart, J. Am. Chem. Soc. 19, 2225 (1980).
   Sc-Zn,Y-Cd : W. J. Pietro and W. J. Hehre, J. Comp. Chem. 4, 241 (1983).

================================================================================
                                        WARNINGS
                       Please study these warnings very carefully!
================================================================================

WARNING: Old DensityContainer found on disk!
         Will remove this file - 
         If you want to keep old densities, please start your calculation with a different basename. 


================================================================================
                                       INPUT FILE
================================================================================
NAME = CH4_HF_1.inp
|  1> ! HF STO-3G SP
|  2> %pal
|  3>   nprocs 4
|  4> end
|  5> 
|  6> %paras
|  7>   R = 0.50, 3.00, 16
|  8> end
|  9> 
| 10> * xyz 0 1
| 11> C   0.000000   0.000000   0.000000
| 12> H   0.000000   0.000000  {R}
| 13> H  -0.907297  -0.496407  -0.351129
| 14> H   0.673211   0.167304  -0.843621
| 15> H  -0.261596   0.958896   0.452753
| 16> **                         ****END OF INPUT****
================================================================================

                       ******************************
                       * Parameter Scan Calculation *
                       ******************************

Trajectory settings:
    -> SCF surface will be mapped

There are 1 parameter(s) to be scanned
             R: range=   0.50000000 ..   3.00000000  steps=   16
There will be   16 energy evaluations


         *************************************************************
                                TRAJECTORY STEP   1
                  R  :   0.50000000
         *************************************************************
---------------------------------
CARTESIAN COORDINATES (ANGSTROEM)
---------------------------------
  C      0.000000    0.000000    0.000000
  H      0.000000    0.000000    0.500000
  H     -0.907297   -0.496407   -0.351129
  H      0.673211    0.167304   -0.843621
  H     -0.261596    0.958896    0.452753

----------------------------
CARTESIAN COORDINATES (A.U.)
----------------------------
  NO LB      ZA    FRAG     MASS         X           Y           Z
   0 C     6.0000    0    12.011    0.000000    0.000000    0.000000
   1 H     1.0000    0     1.008    0.000000    0.000000    0.944863
   2 H     1.0000    0     1.008   -1.714543   -0.938073   -0.663538
   3 H     1.0000    0     1.008    1.272184    0.316159   -1.594213
   4 H     1.0000    0     1.008   -0.494345    1.812051    0.855579

--------------------------------
INTERNAL COORDINATES (ANGSTROEM)
--------------------------------
 C      0   0   0     0.000000000000     0.00000000     0.00000000
 H      1   0   0     0.500000000000     0.00000000     0.00000000
 H      1   2   0     1.092199308963   108.75293829     0.00000000
 H      1   2   3     1.092199647765   140.57039357   194.72806121
 H      2   1   3     0.995060945390    87.27848639   256.57523207

---------------------------
INTERNAL COORDINATES (A.U.)
---------------------------
 C      0   0   0     0.000000000000     0.00000000     0.00000000
 H      1   0   0     0.944863066961     0.00000000     0.00000000
 H      1   2   0     2.063957577598   108.75293829     0.00000000
 H      1   2   3     2.063958217841   140.57039357   194.72806121
 H      2   1   3     1.880392673348    87.27848639   256.57523207

---------------------
BASIS SET INFORMATION
---------------------
There are 2 groups of distinct atoms

 Group   1 Type C   : 6s3p contracted to 2s1p pattern {33/3}
 Group   2 Type H   : 3s contracted to 1s pattern {3}

Atom   0C    basis set group =>   1
Atom   1H    basis set group =>   2
Atom   2H    basis set group =>   2
Atom   3H    basis set group =>   2
Atom   4H    basis set group =>   2

Checking for AutoStart:
The File: CH4_HF_1.gbw exists
Trying to determine its content:
     ... Fine, the file contains calculation information
     ... Fine, the calculation information was read
     ... Fine, the file contains a basis set
     ... Fine, the basis set was read
     ... Fine, the file contains a geometry
     ... Fine, the geometry was read
     ... Fine, the file contains a set of orbitals
     ... Fine, the orbitals can be read
     => possible old guess file was deleted
     => GBW file was renamed to GES file
     => GES file is set as startup file
     => Guess is set to MORead
     ... now leaving AutoStart



           ************************************************************
           *        Program running with 4 parallel MPI-processes     *
           *              working on a common directory               *
           ************************************************************
------------------------------------------------------------------------------
                             ORCA STARTUP CALCULATIONS
------------------------------------------------------------------------------
------------------------------------------------------------------------------
                   ___                                                        
                  /   \      - P O W E R E D   B Y -                         
                 /     \                                                     
                 |  |  |   _    _      __       _____    __    __             
                 |  |  |  | |  | |    /  \     |  _  \  |  |  /  |          
                  \  \/   | |  | |   /    \    | | | |  |  | /  /          
                 / \  \   | |__| |  /  /\  \   | |_| |  |  |/  /          
                |  |  |   |  __  | /  /__\  \  |    /   |      \           
                |  |  |   | |  | | |   __   |  |    \   |  |\   \          
                \     /   | |  | | |  |  |  |  | |\  \  |  | \   \       
                 \___/    |_|  |_| |__|  |__|  |_| \__\ |__|  \__/        
                                                                              
                      - O R C A' S   B I G   F R I E N D -                    
                                      &                                       
                       - I N T E G R A L  F E E D E R -                       
                                                                              
 v1 FN, 2020, v2 2021, v3 2022-2024                                           
------------------------------------------------------------------------------


----------------------
SHARK INTEGRAL PACKAGE
----------------------

Number of atoms                             ...      5
Number of basis functions                   ...      9
Number of shells                            ...      7
Maximum angular momentum                    ...      1
Integral batch strategy                     ... SHARK/LIBINT Hybrid
RI-J (if used) integral strategy            ... SPLIT-RIJ (Revised 2003 algorithm where possible)
Printlevel                                  ...      1
Contraction scheme used                     ... SEGMENTED contraction
Prescreening option                         ... SCHWARTZ
   Thresh                                   ... 1.000e-10
   Tcut                                     ... 1.000e-11
   Tpresel                                  ... 1.000e-11 
Coulomb Range Separation                    ... NOT USED
Exchange Range Separation                   ... NOT USED
Multipole approximations                    ... NOT USED
Finite Nucleus Model                        ... NOT USED
CABS basis                                  ... NOT available
Auxiliary Coulomb fitting basis             ... NOT available
Auxiliary J/K fitting basis                 ... NOT available
Auxiliary Correlation fitting basis         ... NOT available
Auxiliary 'external' fitting basis          ... NOT available

Checking pre-screening integrals            ... done (  0.0 sec) Dimension = 7
Check shell pair data                       ... done (  0.0 sec)
Shell pair information
Shell pair cut-off parameter TPreSel        ...   1.0e-11
Total number of shell pairs                 ...        28
Shell pairs after pre-screening             ...        28
Total number of primitive shell pairs       ...       252
Primitive shell pairs kept                  ...       252
          la=0 lb=0:     21 shell pairs
          la=1 lb=0:      6 shell pairs
          la=1 lb=1:      1 shell pairs

Calculating one electron integrals          ... done (  0.0 sec)
Calculating Nuclear repulsion               ... done (  0.0 sec) ENN=     17.238170741807 Eh

Diagonalization of the overlap matrix:
Smallest eigenvalue                        ... 3.094e-02
Time for diagonalization                   ...    0.000 sec
Threshold for overlap eigenvalues          ... 1.000e-07
Number of eigenvalues below threshold      ... 0
Time for construction of square roots      ...    0.000 sec
Total time needed                          ...    0.001 sec

-------------------
DFT GRID GENERATION
-------------------

General Integration Accuracy     IntAcc      ... 4.388
Radial Grid Type                 RadialGrid  ... OptM3 with GC (2021)
Angular Grid (max. ang.)         AngularGrid ... 4 (Lebedev-302)
Angular grid pruning method      GridPruning ... 4 (adaptive)
Weight generation scheme         WeightScheme... mBecke (2022)
Basis function cutoff            BFCut       ... 1.0000e-10
Integration weight cutoff        WCut        ... 1.0000e-14
Partially contracted basis set               ... off
Rotationally invariant grid construction     ... off
Angular grids for H and He will be reduced by one unit

Total number of grid points                  ...    19189
Total number of batches                      ...      302
Average number of points per batch           ...       63
Average number of grid points per atom       ...     3838
Initializing property integral containers    ... done (  0.0 sec)

SHARK setup successfully completed in   0.2 seconds

Maximum memory used throughout the entire STARTUP-calculation: 4.9 MB


           ************************************************************
           *        Program running with 4 parallel MPI-processes     *
           *              working on a common directory               *
           ************************************************************
-------------------------------------------------------------------------------
                                 ORCA GUESS
                   Start orbitals & Density for SCF / CASSCF
-------------------------------------------------------------------------------

------------
SCF SETTINGS
------------
Hamiltonian:
 Ab initio Hamiltonian  Method          .... Hartree-Fock(GTOs)


General Settings:
 Integral files         IntName         .... CH4_HF_1
 Hartree-Fock type      HFTyp           .... RHF
 Total Charge           Charge          ....    0
 Multiplicity           Mult            ....    1
 Number of Electrons    NEL             ....   10
 Basis Dimension        Dim             ....    9
 Nuclear Repulsion      ENuc            ....     17.2381707418 Eh

Convergence Acceleration:
 AO-DIIS                CNVDIIS         .... on
   Start iteration      DIISMaxIt       ....    12
   Startup error        DIISStart       ....  0.200000
   # of expansion vecs  DIISMaxEq       ....     5
   Bias factor          DIISBfac        ....   1.050
   Max. coefficient     DIISMaxC        ....  10.000
 MO-DIIS                CNVKDIIS        .... off
 Trust-Rad. Augm. Hess. CNVTRAH         .... auto
   Auto Start mean grad. ratio tolernc. ....  1.125000
   Auto Start start iteration           ....     1
   Auto Start num. interpolation iter.  ....    10
   Max. Number of Micro iterations      ....    24
   Max. Number of Macro iterations      .... Maxiter - #DIIS iter
   Number of Davidson start vectors     ....     2
   Converg. threshold    (grad. norm)   ....   5.000e-05
   Grad. Scal. Fac. for Micro threshold ....   0.100
   Minimum threshold for Micro iter.    ....   1.000e-02
   NR start threshold (gradient norm)   ....   1.000e-04
   Initial trust radius                 ....   0.400
   Minimum AH scaling param. (alpha)    ....   1.000
   Maximum AH scaling param. (alpha)    .... 1000.000
   Quad. conv. algorithm                .... NR
   White noise on init. David. guess    .... on
   Maximum white noise                  ....   0.010
   Pseudo random numbers                .... off
   Inactive MOs                         .... canonical
   Orbital update algorithm             .... Taylor
   Preconditioner                       .... Diag
   Full preconditioner red. dimension   ....   250
 SOSCF                  CNVSOSCF        .... on
   Start iteration      SOSCFMaxIt      ....   150
   Startup grad/error   SOSCFStart      ....  0.003300
   Hessian update       SOSCFHessUp     .... L-BFGS
 Level Shifting         CNVShift        .... on
   Level shift para.    LevelShift      ....    0.2500
   Turn off err/grad.   ShiftErr        ....    0.0010
 Zerner damping         CNVZerner       .... off
 Static damping         CNVDamp         .... on
   Fraction old density DampFac         ....    0.7000
   Max. Damping (<1)    DampMax         ....    0.9800
   Min. Damping (>=0)   DampMin         ....    0.0000
   Turn off err/grad.   DampErr         ....    0.1000

SCF Procedure:
 Maximum # iterations   MaxIter         ....   125
 SCF integral mode      SCFMode         .... Direct
   Integral package                     .... SHARK and LIBINT hybrid scheme
 Reset frequency        DirectResetFreq ....    20
 Integral Threshold     Thresh          ....  1.000e-10 Eh
 Primitive CutOff       TCut            ....  1.000e-11 Eh

Convergence Tolerance:
 Convergence Check Mode ConvCheckMode   .... Total+1el-Energy
 Convergence forced     ConvForced      .... 0
 Energy Change          TolE            ....  1.000e-06 Eh
 1-El. energy change                    ....  1.000e-03 Eh
 Orbital Gradient       TolG            ....  5.000e-05
 Orbital Rotation angle TolX            ....  5.000e-05
 DIIS Error             TolErr          ....  1.000e-06

---------------------
INITIAL GUESS: MOREAD
---------------------
Guess MOs are being read from file: CH4_HF_1.ges
Input geometry compatible with but different from current geometry
Input basis set matches current basis set (good)
Occupation numbers will be reassigned to an Aufbau configuration
MOs were renormalized
MOs were reorthogonalized (Cholesky)
                      ------------------
                      INITIAL GUESS DONE (   0.0 sec)
                      ------------------
             **** ENERGY FILE WAS UPDATED (CH4_HF_1.en.tmp) ****
Finished Guess after   0.3 sec
Maximum memory used throughout the entire GUESS-calculation: 2.0 MB


           ************************************************************
           *        Program running with 4 parallel MPI-processes     *
           *              working on a common directory               *
           ************************************************************

-------------------------------------------------------------------------------------------
                                      ORCA LEAN-SCF
                              memory conserving SCF solver
-------------------------------------------------------------------------------------------

----------------------------------------D-I-I-S--------------------------------------------
Iteration    Energy (Eh)           Delta-E    RMSDP     MaxDP     DIISErr   Damp  Time(sec)
-------------------------------------------------------------------------------------------
               ***  Starting incremental Fock matrix formation  ***
    1    -38.5279559748023317     0.00e+00  2.28e-02  6.16e-02  1.46e-01  0.700   0.0
    2    -38.5441560443717250    -1.62e-02  1.91e-02  5.31e-02  1.14e-01  0.700   0.0
                               ***Turning on AO-DIIS***
    3    -38.5566336888916865    -1.25e-02  1.62e-02  4.77e-02  8.57e-02  0.700   0.0
    4    -38.5659291932313479    -9.30e-03  4.08e-02  1.21e-01  6.21e-02  0.000   0.0
    5    -38.5906761838515422    -2.47e-02  2.39e-03  7.34e-03  4.06e-03  0.000   0.0
                              *** Initializing SOSCF ***
---------------------------------------S-O-S-C-F--------------------------------------
Iteration    Energy (Eh)           Delta-E    RMSDP     MaxDP     MaxGrad    Time(sec)
--------------------------------------------------------------------------------------
    6    -38.5907452170527208    -6.90e-05  8.25e-04  2.51e-03  1.34e-03     0.0
               *** Restarting incremental Fock matrix formation ***
    7    -38.5907529505439939    -7.73e-06  2.08e-04  5.77e-04  3.54e-04     0.0
    8    -38.5907534776108321    -5.27e-07  1.00e-04  2.88e-04  1.21e-04     0.0
                 **** Energy Check signals convergence ****

               *****************************************************
               *                     SUCCESS                       *
               *           SCF CONVERGED AFTER   8 CYCLES          *
               *****************************************************

             **** ENERGY FILE WAS UPDATED (CH4_HF_1.en.tmp) ****

----------------
TOTAL SCF ENERGY
----------------

Total Energy       :        -38.59075347761083 Eh           -1050.10779 eV

Components:
Nuclear Repulsion  :         17.23817074180698 Eh             469.07447 eV
Electronic Energy  :        -55.82892421941781 Eh           -1519.18226 eV
One Electron Energy:        -83.85551113606967 Eh           -2281.82446 eV
Two Electron Energy:         28.02658691665186 Eh             762.64220 eV

Virial components:
Potential Energy   :        -79.36432955404386 Eh           -2159.61320 eV
Kinetic Energy     :         40.77357607643303 Eh            1109.50541 eV
Virial Ratio       :          1.94646477427611

---------------
SCF CONVERGENCE
---------------

  Last Energy change         ...    5.2707e-07  Tolerance :   1.0000e-06
  Last MAX-Density change    ...    2.8821e-04  Tolerance :   1.0000e-05
  Last RMS-Density change    ...    1.0044e-04  Tolerance :   1.0000e-06
  Last DIIS Error            ...    1.3373e-03  Tolerance :   1.0000e-06
  Last Orbital Gradient      ...    1.2139e-04  Tolerance :   5.0000e-05
  Last Orbital Rotation      ...    1.4992e-04  Tolerance :   5.0000e-05


----------------
ORBITAL ENERGIES
----------------

  NO   OCC          E(Eh)            E(eV) 
   0   2.0000     -11.172648      -304.0232 
   1   2.0000      -1.058804       -28.8115 
   2   2.0000      -0.660706       -17.9787 
   3   2.0000      -0.546970       -14.8838 
   4   2.0000      -0.462041       -12.5728 
   5   0.0000       0.565652        15.3922 
   6   0.0000       0.654545        17.8111 
   7   0.0000       0.718373        19.5479 
   8   0.0000       2.082758        56.6747 
*Only the first 10 virtual orbitals were printed.

                    ********************************
                    * MULLIKEN POPULATION ANALYSIS *
                    ********************************

-----------------------
MULLIKEN ATOMIC CHARGES
-----------------------
   0 C :   -0.509072
   1 H :    0.048361
   2 H :    0.132177
   3 H :    0.143842
   4 H :    0.184691
Sum of atomic charges:   -0.0000000

--------------------------------
MULLIKEN REDUCED ORBITAL CHARGES
--------------------------------
  0 C s       :     3.025241  s :     3.025241
      pz      :     1.141580  p :     3.483831
      px      :     1.173542
      py      :     1.168709

  1 H s       :     0.951639  s :     0.951639

  2 H s       :     0.867823  s :     0.867823

  3 H s       :     0.856158  s :     0.856158

  4 H s       :     0.815309  s :     0.815309



                     *******************************
                     * LOEWDIN POPULATION ANALYSIS *
                     *******************************

----------------------
LOEWDIN ATOMIC CHARGES
----------------------
   0 C :   -0.431079
   1 H :    0.075669
   2 H :    0.098241
   3 H :    0.111398
   4 H :    0.145771

-------------------------------
LOEWDIN REDUCED ORBITAL CHARGES
-------------------------------
  0 C s       :     2.818496  s :     2.818496
      pz      :     1.242473  p :     3.612584
      px      :     1.180802
      py      :     1.189309

  1 H s       :     0.924331  s :     0.924331

  2 H s       :     0.901759  s :     0.901759

  3 H s       :     0.888602  s :     0.888602

  4 H s       :     0.854229  s :     0.854229



                      *****************************
                      * MAYER POPULATION ANALYSIS *
                      *****************************

  NA   - Mulliken gross atomic population
  ZA   - Total nuclear charge
  QA   - Mulliken gross atomic charge
  VA   - Mayer's total valence
  BVA  - Mayer's bonded valence
  FA   - Mayer's free valence

  ATOM       NA         ZA         QA         VA         BVA        FA
  0 C      6.5091     6.0000    -0.5091     3.9086     3.9086    -0.0000
  1 H      0.9516     1.0000     0.0484     0.9977     0.9977     0.0000
  2 H      0.8678     1.0000     0.1322     0.9825     0.9825    -0.0000
  3 H      0.8562     1.0000     0.1438     0.9793     0.9793    -0.0000
  4 H      0.8153     1.0000     0.1847     0.9659     0.9659    -0.0000

  Mayer bond orders larger than 0.100000
B(  0-C ,  1-H ) :   0.9910 B(  0-C ,  2-H ) :   0.9826 B(  0-C ,  3-H ) :   0.9847 
B(  0-C ,  4-H ) :   0.9503 

-------
TIMINGS
-------

Total SCF time: 0 days 0 hours 0 min 0 sec 

Total time                  ....       0.441 sec
Sum of individual times     ....       0.392 sec  ( 88.8%)

SCF preparation             ....       0.291 sec  ( 66.1%)
Fock matrix formation       ....       0.029 sec  (  6.5%)
  Startup                   ....       0.010 sec  ( 34.0% of F)
  Coulomb+Exchange Fock     ....       0.007 sec  ( 25.8% of F)
Diagonalization             ....       0.000 sec  (  0.0%)
Density matrix formation    ....       0.012 sec  (  2.8%)
Total Energy calculation    ....       0.009 sec  (  2.0%)
Population analysis         ....       0.006 sec  (  1.4%)
Orbital Transformation      ....       0.005 sec  (  1.1%)
Orbital Orthonormalization  ....       0.000 sec  (  0.0%)
DIIS solution               ....       0.032 sec  (  7.2%)
SOSCF solution              ....       0.007 sec  (  1.6%)
Finished LeanSCF after   0.4 sec

Maximum memory used throughout the entire LEANSCF-calculation: 3.6 MB

-------------------------   --------------------
FINAL SINGLE POINT ENERGY       -38.590753477611
-------------------------   --------------------

Storing actual gbw-file in CH4_HF_1.001.gbw ... done


           ************************************************************
           *        Program running with 4 parallel MPI-processes     *
           *              working on a common directory               *
           ************************************************************

------------------------------------------------------------------------------
                              ORCA PROPERTY CALCULATIONS
------------------------------------------------------------------------------

GBWName                                 ... CH4_HF_1.gbw
Number of atoms                         ...      5
Number of basis functions               ...      9
Max core memory                         ...   1024 MB

Electric properties:
Dipole moment                           ... YES
Quadrupole moment                       ...  NO
Static polarizability (Dipole/Dipole)   ...  NO
Static polarizability (Dipole/Quad.)    ...  NO
Static polarizability (Quad./Quad.)     ...  NO
Static polarizability (Velocity)        ...  NO

Atomic electric properties:
Dipole moment                           ...  NO
Quadrupole moment                       ...  NO
Static polarizability                   ...  NO

Choice of electric origin               ... Center of mass
Position of electric origin             ...    -0.058854     0.074778    -0.028733

General magnetic properties:
Magnetizability                         ...  NO

EPR properties:
g-Tensor (aka g-matrix)                 ...  NO
Zero-Field splitting spin-orbit         ...  NO
Zero-field splitting spin-spin          ...  NO
Hyperfine couplings                     ...  NO (   0 nuclei)
Quadrupole couplings                    ...  NO (   0 nuclei)
Contact density                         ...  NO (   0 nuclei)

NMR properties:
Chemical shifts                         ...  NO (   0 nuclei)
Spin-rotation constants                 ...  NO (   0 nuclei)
Spin-spin couplings                     ...  NO (   0 nuclei,    0 pairs)

Choice of magnetic origin               ... GIAO
Position of magnetic origin             ...     0.000000     0.000000     0.000000

Properties with geometric perturbations:
SCF Hessian                             ...  NO
IR spectrum                             ...  NO
VCD spectrum                            ...  NO
X-ray spectroscopy properties:
SCF XES/XAS/RIXS spectra                ...  NO


-------------
DIPOLE MOMENT
-------------

Method             : SCF
Type of density    : Electron Density
Multiplicity       :   1
Irrep              :   0
Energy             :   -38.5907534776108321 Eh
Relativity type    : 
Basis              : AO
                                X                 Y                 Z
Electronic contribution:      0.212490414      -0.163124541       0.009647512
Nuclear contribution   :     -0.348161900       0.442360076      -0.169976185
                        -----------------------------------------
Total Dipole Moment    :     -0.135671486       0.279235535      -0.160328673
                        -----------------------------------------
Magnitude (a.u.)       :      0.349405952
Magnitude (Debye)      :      0.888119350



--------------------
Rotational spectrum 
--------------------
 
Rotational constants in cm-1:             8.150385             7.622095             5.032330 
Rotational constants in MHz :        244342.381463        228504.673755        150865.459601 

Dipole components along the rotational axes: 
x,y,z [a.u.] :     0.050606     0.066088    -0.339346 
x,y,z [Debye]:     0.128631     0.167983    -0.862550 

 

Dipole moment calculation done in   0.0 sec 

Maximum memory used throughout the entire PROP-calculation: 0.9 MB

         *************************************************************
                                TRAJECTORY STEP   2
                  R  :   0.66666667
         *************************************************************
---------------------------------
CARTESIAN COORDINATES (ANGSTROEM)
---------------------------------
  C      0.000000    0.000000    0.000000
  H      0.000000    0.000000    0.666667
  H     -0.907297   -0.496407   -0.351129
  H      0.673211    0.167304   -0.843621
  H     -0.261596    0.958896    0.452753

----------------------------
CARTESIAN COORDINATES (A.U.)
----------------------------
  NO LB      ZA    FRAG     MASS         X           Y           Z
   0 C     6.0000    0    12.011    0.000000    0.000000    0.000000
   1 H     1.0000    0     1.008    0.000000    0.000000    1.259817
   2 H     1.0000    0     1.008   -1.714543   -0.938073   -0.663538
   3 H     1.0000    0     1.008    1.272184    0.316159   -1.594213
   4 H     1.0000    0     1.008   -0.494345    1.812051    0.855579

--------------------------------
INTERNAL COORDINATES (ANGSTROEM)
--------------------------------
 C      0   0   0     0.000000000000     0.00000000     0.00000000
 H      1   0   0     0.666666666667     0.00000000     0.00000000
 H      1   2   0     1.092199308963   108.75293829     0.00000000
 H      1   2   3     1.092199647765   140.57039357   194.72806121
 H      2   1   3     1.016697134263    77.85417172   256.57523207

---------------------------
INTERNAL COORDINATES (A.U.)
---------------------------
 C      0   0   0     0.000000000000     0.00000000     0.00000000
 H      1   0   0     1.259817422614     0.00000000     0.00000000
 H      1   2   0     2.063957577598   108.75293829     0.00000000
 H      1   2   3     2.063958217841   140.57039357   194.72806121
 H      2   1   3     1.921279144900    77.85417172   256.57523207



           ************************************************************
           *        Program running with 4 parallel MPI-processes     *
           *              working on a common directory               *
           ************************************************************
------------------------------------------------------------------------------
                   ___                                                        
                  /   \      - P O W E R E D   B Y -                         
                 /     \                                                     
                 |  |  |   _    _      __       _____    __    __             
                 |  |  |  | |  | |    /  \     |  _  \  |  |  /  |          
                  \  \/   | |  | |   /    \    | | | |  |  | /  /          
                 / \  \   | |__| |  /  /\  \   | |_| |  |  |/  /          
                |  |  |   |  __  | /  /__\  \  |    /   |      \           
                |  |  |   | |  | | |   __   |  |    \   |  |\   \          
                \     /   | |  | | |  |  |  |  | |\  \  |  | \   \       
                 \___/    |_|  |_| |__|  |__|  |_| \__\ |__|  \__/        
                                                                              
                      - O R C A' S   B I G   F R I E N D -                    
                                      &                                       
                       - I N T E G R A L  F E E D E R -                       
                                                                              
 v1 FN, 2020, v2 2021, v3 2022-2024                                           
------------------------------------------------------------------------------


----------------------
SHARK INTEGRAL PACKAGE
----------------------

Number of atoms                             ...      5
Number of basis functions                   ...      9
Number of shells                            ...      7
Maximum angular momentum                    ...      1
Integral batch strategy                     ... SHARK/LIBINT Hybrid
RI-J (if used) integral strategy            ... SPLIT-RIJ (Revised 2003 algorithm where possible)
Printlevel                                  ...      1
Contraction scheme used                     ... SEGMENTED contraction
Prescreening option                         ... SCHWARTZ
   Thresh                                   ... 1.000e-10
   Tcut                                     ... 1.000e-11
   Tpresel                                  ... 1.000e-11 
Coulomb Range Separation                    ... NOT USED
Exchange Range Separation                   ... NOT USED
Multipole approximations                    ... NOT USED
Finite Nucleus Model                        ... NOT USED
CABS basis                                  ... NOT available
Auxiliary Coulomb fitting basis             ... NOT available
Auxiliary J/K fitting basis                 ... NOT available
Auxiliary Correlation fitting basis         ... NOT available
Auxiliary 'external' fitting basis          ... NOT available

Checking pre-screening integrals            ... done (  0.0 sec) Dimension = 7
Check shell pair data                       ... done (  0.0 sec)
Shell pair information
Shell pair cut-off parameter TPreSel        ...   1.0e-11
Total number of shell pairs                 ...        28
Shell pairs after pre-screening             ...        28
Total number of primitive shell pairs       ...       252
Primitive shell pairs kept                  ...       252
          la=0 lb=0:     21 shell pairs
          la=1 lb=0:      6 shell pairs
          la=1 lb=1:      1 shell pairs

Calculating one electron integrals          ... done (  0.0 sec)
Calculating Nuclear repulsion               ... done (  0.0 sec) ENN=     15.577374801696 Eh

Diagonalization of the overlap matrix:
Smallest eigenvalue                        ... 7.911e-02
Time for diagonalization                   ...    0.000 sec
Threshold for overlap eigenvalues          ... 1.000e-07
Number of eigenvalues below threshold      ... 0
Time for construction of square roots      ...    0.000 sec
Total time needed                          ...    0.001 sec

-------------------
DFT GRID GENERATION
-------------------

General Integration Accuracy     IntAcc      ... 4.388
Radial Grid Type                 RadialGrid  ... OptM3 with GC (2021)
Angular Grid (max. ang.)         AngularGrid ... 4 (Lebedev-302)
Angular grid pruning method      GridPruning ... 4 (adaptive)
Weight generation scheme         WeightScheme... mBecke (2022)
Basis function cutoff            BFCut       ... 1.0000e-10
Integration weight cutoff        WCut        ... 1.0000e-14
Partially contracted basis set               ... off
Rotationally invariant grid construction     ... off
Angular grids for H and He will be reduced by one unit

Total number of grid points                  ...    19208
Total number of batches                      ...      302
Average number of points per batch           ...       63
Average number of grid points per atom       ...     3842
Initializing property integral containers    ... done (  0.0 sec)

SHARK setup successfully completed in   0.1 seconds

Maximum memory used throughout the entire STARTUP-calculation: 4.9 MB


           ************************************************************
           *        Program running with 4 parallel MPI-processes     *
           *              working on a common directory               *
           ************************************************************
Occupation numbers will be reassigned to an Aufbau configuration
             **** ENERGY FILE WAS UPDATED (CH4_HF_1.en.tmp) ****
Finished Guess after   0.3 sec
Maximum memory used throughout the entire GUESS-calculation: 2.0 MB


           ************************************************************
           *        Program running with 4 parallel MPI-processes     *
           *              working on a common directory               *
           ************************************************************
----------------------------------------D-I-I-S--------------------------------------------
Iteration    Energy (Eh)           Delta-E    RMSDP     MaxDP     DIISErr   Damp  Time(sec)
-------------------------------------------------------------------------------------------
               ***  Starting incremental Fock matrix formation  ***
    1    -39.2702338034621548     0.00e+00  7.73e-03  3.26e-02  3.55e-02  0.700   0.0
    2    -39.2718708440064859    -1.64e-03  6.79e-03  2.81e-02  2.77e-02  0.700   0.0
                               ***Turning on AO-DIIS***
    3    -39.2731498514081849    -1.28e-03  6.13e-03  2.59e-02  2.11e-02  0.700   0.0
    4    -39.2741102515247675    -9.60e-04  1.56e-02  6.55e-02  1.53e-02  0.000   0.0
                              *** Initializing SOSCF ***
---------------------------------------S-O-S-C-F--------------------------------------
Iteration    Energy (Eh)           Delta-E    RMSDP     MaxDP     MaxGrad    Time(sec)
--------------------------------------------------------------------------------------
    5    -39.2766611615495904    -2.55e-03  7.72e-04  2.33e-03  9.31e-04     0.0
               *** Restarting incremental Fock matrix formation ***
    6    -39.2766655665269937    -4.40e-06  2.49e-04  6.64e-04  3.50e-04     0.0
    7    -39.2766660606601121    -4.94e-07  1.06e-04  2.84e-04  1.03e-04     0.0
                 **** Energy Check signals convergence ****

               *****************************************************
               *                     SUCCESS                       *
               *           SCF CONVERGED AFTER   7 CYCLES          *
               *****************************************************

             **** ENERGY FILE WAS UPDATED (CH4_HF_1.en.tmp) ****

----------------
TOTAL SCF ENERGY
----------------

Total Energy       :        -39.27666606066011 Eh           -1068.77242 eV

Components:
Nuclear Repulsion  :         15.57737480169646 Eh             423.88192 eV
Electronic Energy  :        -54.85404086235658 Eh           -1492.65434 eV
One Electron Energy:        -82.31285174301135 Eh           -2239.84657 eV
Two Electron Energy:         27.45881088065477 Eh             747.19223 eV

Virial components:
Potential Energy   :        -79.50069301633695 Eh           -2163.32384 eV
Kinetic Energy     :         40.22402695567685 Eh            1094.55142 eV
Virial Ratio       :          1.97644788533827

---------------
SCF CONVERGENCE
---------------

  Last Energy change         ...    4.9413e-07  Tolerance :   1.0000e-06
  Last MAX-Density change    ...    2.8437e-04  Tolerance :   1.0000e-05
  Last RMS-Density change    ...    1.0574e-04  Tolerance :   1.0000e-06
  Last DIIS Error            ...    9.3140e-04  Tolerance :   1.0000e-06
  Last Orbital Gradient      ...    1.0287e-04  Tolerance :   5.0000e-05
  Last Orbital Rotation      ...    1.2579e-04  Tolerance :   5.0000e-05


Total SCF time: 0 days 0 hours 0 min 0 sec 
Finished LeanSCF after   0.4 sec

Maximum memory used throughout the entire LEANSCF-calculation: 3.7 MB

-------------------------   --------------------
FINAL SINGLE POINT ENERGY       -39.276666060660
-------------------------   --------------------

Storing actual gbw-file in CH4_HF_1.002.gbw ... done


           ************************************************************
           *        Program running with 4 parallel MPI-processes     *
           *              working on a common directory               *
           ************************************************************

------------------------------------------------------------------------------
                              ORCA PROPERTY CALCULATIONS
------------------------------------------------------------------------------

GBWName                                 ... CH4_HF_1.gbw
Number of atoms                         ...      5
Number of basis functions               ...      9
Max core memory                         ...   1024 MB

Electric properties:
Dipole moment                           ... YES
Quadrupole moment                       ...  NO
Static polarizability (Dipole/Dipole)   ...  NO
Static polarizability (Dipole/Quad.)    ...  NO
Static polarizability (Quad./Quad.)     ...  NO
Static polarizability (Velocity)        ...  NO

Atomic electric properties:
Dipole moment                           ...  NO
Quadrupole moment                       ...  NO
Static polarizability                   ...  NO

Choice of electric origin               ... Center of mass
Position of electric origin             ...    -0.058854     0.074778    -0.008944

General magnetic properties:
Magnetizability                         ...  NO

EPR properties:
g-Tensor (aka g-matrix)                 ...  NO
Zero-Field splitting spin-orbit         ...  NO
Zero-field splitting spin-spin          ...  NO
Hyperfine couplings                     ...  NO (   0 nuclei)
Quadrupole couplings                    ...  NO (   0 nuclei)
Contact density                         ...  NO (   0 nuclei)

NMR properties:
Chemical shifts                         ...  NO (   0 nuclei)
Spin-rotation constants                 ...  NO (   0 nuclei)
Spin-spin couplings                     ...  NO (   0 nuclei,    0 pairs)

Choice of magnetic origin               ... GIAO
Position of magnetic origin             ...     0.000000     0.000000     0.000000

Properties with geometric perturbations:
SCF Hessian                             ...  NO
IR spectrum                             ...  NO
VCD spectrum                            ...  NO
X-ray spectroscopy properties:
SCF XES/XAS/RIXS spectra                ...  NO


-------------
DIPOLE MOMENT
-------------

Method             : SCF
Type of density    : Electron Density
Multiplicity       :   1
Irrep              :   0
Energy             :   -39.2766660606601121 Eh
Relativity type    : 
Basis              : AO
                                X                 Y                 Z
Electronic contribution:      0.254061536      -0.218221181       0.032907468
Nuclear contribution   :     -0.348161900       0.442360076      -0.052911245
                        -----------------------------------------
Total Dipole Moment    :     -0.094100364       0.224138895      -0.020003777
                        -----------------------------------------
Magnitude (a.u.)       :      0.243912431
Magnitude (Debye)      :      0.619976129



--------------------
Rotational spectrum 
--------------------
 
Rotational constants in cm-1:             7.880194             6.991883             4.846517 
Rotational constants in MHz :        236242.271550        209611.379546        145294.924233 

Dipole components along the rotational axes: 
x,y,z [a.u.] :     0.107746     0.064679    -0.209047 
x,y,z [Debye]:     0.273869     0.164402    -0.531355 

 

Dipole moment calculation done in   0.0 sec 

Maximum memory used throughout the entire PROP-calculation: 1.0 MB

         *************************************************************
                                TRAJECTORY STEP   3
                  R  :   0.83333333
         *************************************************************
---------------------------------
CARTESIAN COORDINATES (ANGSTROEM)
---------------------------------
  C      0.000000    0.000000    0.000000
  H      0.000000    0.000000    0.833333
  H     -0.907297   -0.496407   -0.351129
  H      0.673211    0.167304   -0.843621
  H     -0.261596    0.958896    0.452753

----------------------------
CARTESIAN COORDINATES (A.U.)
----------------------------
  NO LB      ZA    FRAG     MASS         X           Y           Z
   0 C     6.0000    0    12.011    0.000000    0.000000    0.000000
   1 H     1.0000    0     1.008    0.000000    0.000000    1.574772
   2 H     1.0000    0     1.008   -1.714543   -0.938073   -0.663538
   3 H     1.0000    0     1.008    1.272184    0.316159   -1.594213
   4 H     1.0000    0     1.008   -0.494345    1.812051    0.855579

--------------------------------
INTERNAL COORDINATES (ANGSTROEM)
--------------------------------
 C      0   0   0     0.000000000000     0.00000000     0.00000000
 H      1   0   0     0.833333333333     0.00000000     0.00000000
 H      1   2   0     1.092199308963   108.75293829     0.00000000
 H      1   2   3     1.092199647765   140.57039357   194.72806121
 H      2   1   3     1.064309821505    69.04809507   256.57523207

---------------------------
INTERNAL COORDINATES (A.U.)
---------------------------
 C      0   0   0     0.000000000000     0.00000000     0.00000000
 H      1   0   0     1.574771778268     0.00000000     0.00000000
 H      1   2   0     2.063957577598   108.75293829     0.00000000
 H      1   2   3     2.063958217841   140.57039357   194.72806121
 H      2   1   3     2.011254084287    69.04809507   256.57523207



           ************************************************************
           *        Program running with 4 parallel MPI-processes     *
           *              working on a common directory               *
           ************************************************************
------------------------------------------------------------------------------
                   ___                                                        
                  /   \      - P O W E R E D   B Y -                         
                 /     \                                                     
                 |  |  |   _    _      __       _____    __    __             
                 |  |  |  | |  | |    /  \     |  _  \  |  |  /  |          
                  \  \/   | |  | |   /    \    | | | |  |  | /  /          
                 / \  \   | |__| |  /  /\  \   | |_| |  |  |/  /          
                |  |  |   |  __  | /  /__\  \  |    /   |      \           
                |  |  |   | |  | | |   __   |  |    \   |  |\   \          
                \     /   | |  | | |  |  |  |  | |\  \  |  | \   \       
                 \___/    |_|  |_| |__|  |__|  |_| \__\ |__|  \__/        
                                                                              
                      - O R C A' S   B I G   F R I E N D -                    
                                      &                                       
                       - I N T E G R A L  F E E D E R -                       
                                                                              
 v1 FN, 2020, v2 2021, v3 2022-2024                                           
------------------------------------------------------------------------------


----------------------
SHARK INTEGRAL PACKAGE
----------------------

Number of atoms                             ...      5
Number of basis functions                   ...      9
Number of shells                            ...      7
Maximum angular momentum                    ...      1
Integral batch strategy                     ... SHARK/LIBINT Hybrid
RI-J (if used) integral strategy            ... SPLIT-RIJ (Revised 2003 algorithm where possible)
Printlevel                                  ...      1
Contraction scheme used                     ... SEGMENTED contraction
Prescreening option                         ... SCHWARTZ
   Thresh                                   ... 1.000e-10
   Tcut                                     ... 1.000e-11
   Tpresel                                  ... 1.000e-11 
Coulomb Range Separation                    ... NOT USED
Exchange Range Separation                   ... NOT USED
Multipole approximations                    ... NOT USED
Finite Nucleus Model                        ... NOT USED
CABS basis                                  ... NOT available
Auxiliary Coulomb fitting basis             ... NOT available
Auxiliary J/K fitting basis                 ... NOT available
Auxiliary Correlation fitting basis         ... NOT available
Auxiliary 'external' fitting basis          ... NOT available

Checking pre-screening integrals            ... done (  0.0 sec) Dimension = 7
Check shell pair data                       ... done (  0.0 sec)
Shell pair information
Shell pair cut-off parameter TPreSel        ...   1.0e-11
Total number of shell pairs                 ...        28
Shell pairs after pre-screening             ...        28
Total number of primitive shell pairs       ...       252
Primitive shell pairs kept                  ...       252
          la=0 lb=0:     21 shell pairs
          la=1 lb=0:      6 shell pairs
          la=1 lb=1:      1 shell pairs

Calculating one electron integrals          ... done (  0.0 sec)
Calculating Nuclear repulsion               ... done (  0.0 sec) ENN=     14.546609411588 Eh

Diagonalization of the overlap matrix:
Smallest eigenvalue                        ... 1.508e-01
Time for diagonalization                   ...    0.000 sec
Threshold for overlap eigenvalues          ... 1.000e-07
Number of eigenvalues below threshold      ... 0
Time for construction of square roots      ...    0.000 sec
Total time needed                          ...    0.001 sec

-------------------
DFT GRID GENERATION
-------------------

General Integration Accuracy     IntAcc      ... 4.388
Radial Grid Type                 RadialGrid  ... OptM3 with GC (2021)
Angular Grid (max. ang.)         AngularGrid ... 4 (Lebedev-302)
Angular grid pruning method      GridPruning ... 4 (adaptive)
Weight generation scheme         WeightScheme... mBecke (2022)
Basis function cutoff            BFCut       ... 1.0000e-10
Integration weight cutoff        WCut        ... 1.0000e-14
Partially contracted basis set               ... off
Rotationally invariant grid construction     ... off
Angular grids for H and He will be reduced by one unit

Total number of grid points                  ...    19230
Total number of batches                      ...      303
Average number of points per batch           ...       63
Average number of grid points per atom       ...     3846
Initializing property integral containers    ... done (  0.0 sec)

SHARK setup successfully completed in   0.2 seconds

Maximum memory used throughout the entire STARTUP-calculation: 4.9 MB


           ************************************************************
           *        Program running with 4 parallel MPI-processes     *
           *              working on a common directory               *
           ************************************************************
Occupation numbers will be reassigned to an Aufbau configuration
             **** ENERGY FILE WAS UPDATED (CH4_HF_1.en.tmp) ****
Finished Guess after   0.3 sec
Maximum memory used throughout the entire GUESS-calculation: 2.0 MB


           ************************************************************
           *        Program running with 4 parallel MPI-processes     *
           *              working on a common directory               *
           ************************************************************
----------------------------------------D-I-I-S--------------------------------------------
Iteration    Energy (Eh)           Delta-E    RMSDP     MaxDP     DIISErr   Damp  Time(sec)
-------------------------------------------------------------------------------------------
               ***  Starting incremental Fock matrix formation  ***
    1    -39.5304514277867725     0.00e+00  3.16e-03  8.17e-03  2.40e-02  0.700   0.0
    2    -39.5310154275026449    -5.64e-04  2.73e-03  7.01e-03  1.83e-02  0.700   0.0
                               ***Turning on AO-DIIS***
    3    -39.5314468220772000    -4.31e-04  2.21e-03  4.96e-03  1.41e-02  0.700   0.0
    4    -39.5317666510956442    -3.20e-04  5.64e-03  1.25e-02  1.04e-02  0.000   0.0
                              *** Initializing SOSCF ***
---------------------------------------S-O-S-C-F--------------------------------------
Iteration    Energy (Eh)           Delta-E    RMSDP     MaxDP     MaxGrad    Time(sec)
--------------------------------------------------------------------------------------
    5    -39.5326146388579573    -8.48e-04  3.90e-04  1.05e-03  7.44e-04     0.0
               *** Restarting incremental Fock matrix formation ***
    6    -39.5326171076048922    -2.47e-06  1.29e-04  3.57e-04  2.00e-04     0.0
    7    -39.5326173636401634    -2.56e-07  6.85e-05  1.86e-04  6.28e-05     0.0
                 **** Energy Check signals convergence ****

               *****************************************************
               *                     SUCCESS                       *
               *           SCF CONVERGED AFTER   7 CYCLES          *
               *****************************************************

             **** ENERGY FILE WAS UPDATED (CH4_HF_1.en.tmp) ****

----------------
TOTAL SCF ENERGY
----------------

Total Energy       :        -39.53261736364016 Eh           -1075.73721 eV

Components:
Nuclear Repulsion  :         14.54660941158806 Eh             395.83337 eV
Electronic Energy  :        -54.07922677522822 Eh           -1471.57057 eV
One Electron Energy:        -81.04758842585072 Eh           -2205.41700 eV
Two Electron Energy:         26.96836165062250 Eh             733.84643 eV

Virial components:
Potential Energy   :        -79.40578702163378 Eh           -2160.74131 eV
Kinetic Energy     :         39.87316965799362 Eh            1085.00411 eV
Virial Ratio       :          1.99145911154607

---------------
SCF CONVERGENCE
---------------

  Last Energy change         ...    2.5604e-07  Tolerance :   1.0000e-06
  Last MAX-Density change    ...    1.8558e-04  Tolerance :   1.0000e-05
  Last RMS-Density change    ...    6.8540e-05  Tolerance :   1.0000e-06
  Last DIIS Error            ...    7.4396e-04  Tolerance :   1.0000e-06
  Last Orbital Gradient      ...    6.2833e-05  Tolerance :   5.0000e-05
  Last Orbital Rotation      ...    9.2967e-05  Tolerance :   5.0000e-05


Total SCF time: 0 days 0 hours 0 min 0 sec 
Finished LeanSCF after   0.4 sec

Maximum memory used throughout the entire LEANSCF-calculation: 3.8 MB

-------------------------   --------------------
FINAL SINGLE POINT ENERGY       -39.532617363640
-------------------------   --------------------

Storing actual gbw-file in CH4_HF_1.003.gbw ... done


           ************************************************************
           *        Program running with 4 parallel MPI-processes     *
           *              working on a common directory               *
           ************************************************************

------------------------------------------------------------------------------
                              ORCA PROPERTY CALCULATIONS
------------------------------------------------------------------------------

GBWName                                 ... CH4_HF_1.gbw
Number of atoms                         ...      5
Number of basis functions               ...      9
Max core memory                         ...   1024 MB

Electric properties:
Dipole moment                           ... YES
Quadrupole moment                       ...  NO
Static polarizability (Dipole/Dipole)   ...  NO
Static polarizability (Dipole/Quad.)    ...  NO
Static polarizability (Quad./Quad.)     ...  NO
Static polarizability (Velocity)        ...  NO

Atomic electric properties:
Dipole moment                           ...  NO
Quadrupole moment                       ...  NO
Static polarizability                   ...  NO

Choice of electric origin               ... Center of mass
Position of electric origin             ...    -0.058854     0.074778     0.010845

General magnetic properties:
Magnetizability                         ...  NO

EPR properties:
g-Tensor (aka g-matrix)                 ...  NO
Zero-Field splitting spin-orbit         ...  NO
Zero-field splitting spin-spin          ...  NO
Hyperfine couplings                     ...  NO (   0 nuclei)
Quadrupole couplings                    ...  NO (   0 nuclei)
Contact density                         ...  NO (   0 nuclei)

NMR properties:
Chemical shifts                         ...  NO (   0 nuclei)
Spin-rotation constants                 ...  NO (   0 nuclei)
Spin-spin couplings                     ...  NO (   0 nuclei,    0 pairs)

Choice of magnetic origin               ... GIAO
Position of magnetic origin             ...     0.000000     0.000000     0.000000

Properties with geometric perturbations:
SCF Hessian                             ...  NO
IR spectrum                             ...  NO
VCD spectrum                            ...  NO
X-ray spectroscopy properties:
SCF XES/XAS/RIXS spectra                ...  NO


-------------
DIPOLE MOMENT
-------------

Method             : SCF
Type of density    : Electron Density
Multiplicity       :   1
Irrep              :   0
Energy             :   -39.5326173636401634 Eh
Relativity type    : 
Basis              : AO
                                X                 Y                 Z
Electronic contribution:      0.279483787      -0.248493978       0.005432695
Nuclear contribution   :     -0.348161900       0.442360076       0.064153694
                        -----------------------------------------
Total Dipole Moment    :     -0.068678113       0.193866098       0.069586389
                        -----------------------------------------
Magnitude (a.u.)       :      0.217124417
Magnitude (Debye)      :      0.551886410



--------------------
Rotational spectrum 
--------------------
 
Rotational constants in cm-1:             7.632544             6.330650             4.605007 
Rotational constants in MHz :        228817.913462        189788.100195        138054.630943 

Dipole components along the rotational axes: 
x,y,z [a.u.] :     0.151692    -0.065933    -0.140660 
x,y,z [Debye]:     0.385571    -0.167589    -0.357530 

 

Dipole moment calculation done in   0.0 sec 

Maximum memory used throughout the entire PROP-calculation: 1.0 MB

         *************************************************************
                                TRAJECTORY STEP   4
                  R  :   1.00000000
         *************************************************************
---------------------------------
CARTESIAN COORDINATES (ANGSTROEM)
---------------------------------
  C      0.000000    0.000000    0.000000
  H      0.000000    0.000000    1.000000
  H     -0.907297   -0.496407   -0.351129
  H      0.673211    0.167304   -0.843621
  H     -0.261596    0.958896    0.452753

----------------------------
CARTESIAN COORDINATES (A.U.)
----------------------------
  NO LB      ZA    FRAG     MASS         X           Y           Z
   0 C     6.0000    0    12.011    0.000000    0.000000    0.000000
   1 H     1.0000    0     1.008    0.000000    0.000000    1.889726
   2 H     1.0000    0     1.008   -1.714543   -0.938073   -0.663538
   3 H     1.0000    0     1.008    1.272184    0.316159   -1.594213
   4 H     1.0000    0     1.008   -0.494345    1.812051    0.855579

--------------------------------
INTERNAL COORDINATES (ANGSTROEM)
--------------------------------
 C      0   0   0     0.000000000000     0.00000000     0.00000000
 H      1   0   0     1.000000000000     0.00000000     0.00000000
 H      1   2   0     1.092199308963   108.75293829     0.00000000
 H      1   2   3     1.092199647765   140.57039357   194.72806121
 H      1   2   3     1.092199288153    65.51006897   103.42476793

---------------------------
INTERNAL COORDINATES (A.U.)
---------------------------
 C      0   0   0     0.000000000000     0.00000000     0.00000000
 H      1   0   0     1.889726133921     0.00000000     0.00000000
 H      1   2   0     2.063957577598   108.75293829     0.00000000
 H      1   2   3     2.063958217841   140.57039357   194.72806121
 H      1   2   3     2.063957538272    65.51006897   103.42476793



           ************************************************************
           *        Program running with 4 parallel MPI-processes     *
           *              working on a common directory               *
           ************************************************************
------------------------------------------------------------------------------
                   ___                                                        
                  /   \      - P O W E R E D   B Y -                         
                 /     \                                                     
                 |  |  |   _    _      __       _____    __    __             
                 |  |  |  | |  | |    /  \     |  _  \  |  |  /  |          
                  \  \/   | |  | |   /    \    | | | |  |  | /  /          
                 / \  \   | |__| |  /  /\  \   | |_| |  |  |/  /          
                |  |  |   |  __  | /  /__\  \  |    /   |      \           
                |  |  |   | |  | | |   __   |  |    \   |  |\   \          
                \     /   | |  | | |  |  |  |  | |\  \  |  | \   \       
                 \___/    |_|  |_| |__|  |__|  |_| \__\ |__|  \__/        
                                                                              
                      - O R C A' S   B I G   F R I E N D -                    
                                      &                                       
                       - I N T E G R A L  F E E D E R -                       
                                                                              
 v1 FN, 2020, v2 2021, v3 2022-2024                                           
------------------------------------------------------------------------------


----------------------
SHARK INTEGRAL PACKAGE
----------------------

Number of atoms                             ...      5
Number of basis functions                   ...      9
Number of shells                            ...      7
Maximum angular momentum                    ...      1
Integral batch strategy                     ... SHARK/LIBINT Hybrid
RI-J (if used) integral strategy            ... SPLIT-RIJ (Revised 2003 algorithm where possible)
Printlevel                                  ...      1
Contraction scheme used                     ... SEGMENTED contraction
Prescreening option                         ... SCHWARTZ
   Thresh                                   ... 1.000e-10
   Tcut                                     ... 1.000e-11
   Tpresel                                  ... 1.000e-11 
Coulomb Range Separation                    ... NOT USED
Exchange Range Separation                   ... NOT USED
Multipole approximations                    ... NOT USED
Finite Nucleus Model                        ... NOT USED
CABS basis                                  ... NOT available
Auxiliary Coulomb fitting basis             ... NOT available
Auxiliary J/K fitting basis                 ... NOT available
Auxiliary Correlation fitting basis         ... NOT available
Auxiliary 'external' fitting basis          ... NOT available

Checking pre-screening integrals            ... done (  0.0 sec) Dimension = 7
Check shell pair data                       ... done (  0.0 sec)
Shell pair information
Shell pair cut-off parameter TPreSel        ...   1.0e-11
Total number of shell pairs                 ...        28
Shell pairs after pre-screening             ...        28
Total number of primitive shell pairs       ...       252
Primitive shell pairs kept                  ...       252
          la=0 lb=0:     21 shell pairs
          la=1 lb=0:      6 shell pairs
          la=1 lb=1:      1 shell pairs

Calculating one electron integrals          ... done (  0.0 sec)
Calculating Nuclear repulsion               ... done (  0.0 sec) ENN=     13.832299748677 Eh

Diagonalization of the overlap matrix:
Smallest eigenvalue                        ... 2.172e-01
Time for diagonalization                   ...    0.000 sec
Threshold for overlap eigenvalues          ... 1.000e-07
Number of eigenvalues below threshold      ... 0
Time for construction of square roots      ...    0.000 sec
Total time needed                          ...    0.001 sec

-------------------
DFT GRID GENERATION
-------------------

General Integration Accuracy     IntAcc      ... 4.388
Radial Grid Type                 RadialGrid  ... OptM3 with GC (2021)
Angular Grid (max. ang.)         AngularGrid ... 4 (Lebedev-302)
Angular grid pruning method      GridPruning ... 4 (adaptive)
Weight generation scheme         WeightScheme... mBecke (2022)
Basis function cutoff            BFCut       ... 1.0000e-10
Integration weight cutoff        WCut        ... 1.0000e-14
Partially contracted basis set               ... off
Rotationally invariant grid construction     ... off
Angular grids for H and He will be reduced by one unit

Total number of grid points                  ...    19252
Total number of batches                      ...      303
Average number of points per batch           ...       63
Average number of grid points per atom       ...     3850
Initializing property integral containers    ... done (  0.0 sec)

SHARK setup successfully completed in   0.1 seconds

Maximum memory used throughout the entire STARTUP-calculation: 4.9 MB


           ************************************************************
           *        Program running with 4 parallel MPI-processes     *
           *              working on a common directory               *
           ************************************************************
Occupation numbers will be reassigned to an Aufbau configuration
             **** ENERGY FILE WAS UPDATED (CH4_HF_1.en.tmp) ****
Finished Guess after   0.3 sec
Maximum memory used throughout the entire GUESS-calculation: 2.0 MB


           ************************************************************
           *        Program running with 4 parallel MPI-processes     *
           *              working on a common directory               *
           ************************************************************
----------------------------------------D-I-I-S--------------------------------------------
Iteration    Energy (Eh)           Delta-E    RMSDP     MaxDP     DIISErr   Damp  Time(sec)
-------------------------------------------------------------------------------------------
               ***  Starting incremental Fock matrix formation  ***
    1    -39.6117205633261449     0.00e+00  2.70e-03  9.30e-03  1.90e-02  0.700   0.0
    2    -39.6121185196989671    -3.98e-04  2.35e-03  8.07e-03  1.55e-02  0.700   0.0
                               ***Turning on AO-DIIS***
    3    -39.6124276616801154    -3.09e-04  2.00e-03  6.58e-03  1.23e-02  0.700   0.0
    4    -39.6126611731564964    -2.34e-04  5.30e-03  1.71e-02  9.16e-03  0.000   0.0
                              *** Initializing SOSCF ***
---------------------------------------S-O-S-C-F--------------------------------------
Iteration    Energy (Eh)           Delta-E    RMSDP     MaxDP     MaxGrad    Time(sec)
--------------------------------------------------------------------------------------
    5    -39.6133058765585133    -6.45e-04  5.18e-04  1.59e-03  8.42e-04     0.0
               *** Restarting incremental Fock matrix formation ***
    6    -39.6133092321172313    -3.36e-06  1.68e-04  4.68e-04  2.02e-04     0.0
    7    -39.6133095612478883    -3.29e-07  8.88e-05  2.31e-04  7.22e-05     0.0
                 **** Energy Check signals convergence ****

               *****************************************************
               *                     SUCCESS                       *
               *           SCF CONVERGED AFTER   7 CYCLES          *
               *****************************************************

             **** ENERGY FILE WAS UPDATED (CH4_HF_1.en.tmp) ****

----------------
TOTAL SCF ENERGY
----------------

Total Energy       :        -39.61330956124789 Eh           -1077.93295 eV

Components:
Nuclear Repulsion  :         13.83229974867674 Eh             376.39601 eV
Electronic Energy  :        -53.44560930992462 Eh           -1454.32897 eV
One Electron Energy:        -79.98926112084789 Eh           -2176.61845 eV
Two Electron Energy:         26.54365181092327 Eh             722.28949 eV

Virial components:
Potential Energy   :        -79.26456072661327 Eh           -2156.89835 eV
Kinetic Energy     :         39.65125116536538 Eh            1078.96540 eV
Virial Ratio       :          1.99904311710218

---------------
SCF CONVERGENCE
---------------

  Last Energy change         ...    3.2913e-07  Tolerance :   1.0000e-06
  Last MAX-Density change    ...    2.3080e-04  Tolerance :   1.0000e-05
  Last RMS-Density change    ...    8.8811e-05  Tolerance :   1.0000e-06
  Last DIIS Error            ...    8.4160e-04  Tolerance :   1.0000e-06
  Last Orbital Gradient      ...    7.2187e-05  Tolerance :   5.0000e-05
  Last Orbital Rotation      ...    9.9299e-05  Tolerance :   5.0000e-05


Total SCF time: 0 days 0 hours 0 min 0 sec 
Finished LeanSCF after   0.3 sec

Maximum memory used throughout the entire LEANSCF-calculation: 3.9 MB

-------------------------   --------------------
FINAL SINGLE POINT ENERGY       -39.613309561248
-------------------------   --------------------

Storing actual gbw-file in CH4_HF_1.004.gbw ... done


           ************************************************************
           *        Program running with 4 parallel MPI-processes     *
           *              working on a common directory               *
           ************************************************************
[...]
                        -----------------------------------------
Magnitude (a.u.)       :      0.387929856
Magnitude (Debye)      :      0.986039332



--------------------
Rotational spectrum 
--------------------
 
Rotational constants in cm-1:             6.775973             1.723970             1.605942 
Rotational constants in MHz :        203138.556627         51683.312606         48144.930466 

Dipole components along the rotational axes: 
x,y,z [a.u.] :    -0.356840    -0.011132    -0.151760 
x,y,z [Debye]:    -0.907015    -0.028295    -0.385742 

 

Dipole moment calculation done in   0.0 sec 

Maximum memory used throughout the entire PROP-calculation: 1.9 MB

         *************************************************************
                                TRAJECTORY STEP  16
                  R  :   3.00000000
         *************************************************************
---------------------------------
CARTESIAN COORDINATES (ANGSTROEM)
---------------------------------
  C      0.000000    0.000000    0.000000
  H      0.000000    0.000000    3.000000
  H     -0.907297   -0.496407   -0.351129
  H      0.673211    0.167304   -0.843621
  H     -0.261596    0.958896    0.452753

----------------------------
CARTESIAN COORDINATES (A.U.)
----------------------------
  NO LB      ZA    FRAG     MASS         X           Y           Z
   0 C     6.0000    0    12.011    0.000000    0.000000    0.000000
   1 H     1.0000    0     1.008    0.000000    0.000000    5.669178
   2 H     1.0000    0     1.008   -1.714543   -0.938073   -0.663538
   3 H     1.0000    0     1.008    1.272184    0.316159   -1.594213
   4 H     1.0000    0     1.008   -0.494345    1.812051    0.855579

--------------------------------
INTERNAL COORDINATES (ANGSTROEM)
--------------------------------
 C      0   0   0     0.000000000000     0.00000000     0.00000000
 H      1   0   0     3.000000000000     0.00000000     0.00000000
 H      1   2   0     1.092199308963   108.75293829     0.00000000
 H      1   2   3     1.092199647765   140.57039357   194.72806121
 H      1   2   3     1.092199288153    65.51006897   103.42476793

---------------------------
INTERNAL COORDINATES (A.U.)
---------------------------
 C      0   0   0     0.000000000000     0.00000000     0.00000000
 H      1   0   0     5.669178401764     0.00000000     0.00000000
 H      1   2   0     2.063957577598   108.75293829     0.00000000
 H      1   2   3     2.063958217841   140.57039357   194.72806121
 H      1   2   3     2.063957538272    65.51006897   103.42476793



           ************************************************************
           *        Program running with 4 parallel MPI-processes     *
           *              working on a common directory               *
           ************************************************************
------------------------------------------------------------------------------
                   ___                                                        
                  /   \      - P O W E R E D   B Y -                         
                 /     \                                                     
                 |  |  |   _    _      __       _____    __    __             
                 |  |  |  | |  | |    /  \     |  _  \  |  |  /  |          
                  \  \/   | |  | |   /    \    | | | |  |  | /  /          
                 / \  \   | |__| |  /  /\  \   | |_| |  |  |/  /          
                |  |  |   |  __  | /  /__\  \  |    /   |      \           
                |  |  |   | |  | | |   __   |  |    \   |  |\   \          
                \     /   | |  | | |  |  |  |  | |\  \  |  | \   \       
                 \___/    |_|  |_| |__|  |__|  |_| \__\ |__|  \__/        
                                                                              
                      - O R C A' S   B I G   F R I E N D -                    
                                      &                                       
                       - I N T E G R A L  F E E D E R -                       
                                                                              
 v1 FN, 2020, v2 2021, v3 2022-2024                                           
------------------------------------------------------------------------------


----------------------
SHARK INTEGRAL PACKAGE
----------------------

Number of atoms                             ...      5
Number of basis functions                   ...      9
Number of shells                            ...      7
Maximum angular momentum                    ...      1
Integral batch strategy                     ... SHARK/LIBINT Hybrid
RI-J (if used) integral strategy            ... SPLIT-RIJ (Revised 2003 algorithm where possible)
Printlevel                                  ...      1
Contraction scheme used                     ... SEGMENTED contraction
Prescreening option                         ... SCHWARTZ
   Thresh                                   ... 1.000e-10
   Tcut                                     ... 1.000e-11
   Tpresel                                  ... 1.000e-11 
Coulomb Range Separation                    ... NOT USED
Exchange Range Separation                   ... NOT USED
Multipole approximations                    ... NOT USED
Finite Nucleus Model                        ... NOT USED
CABS basis                                  ... NOT available
Auxiliary Coulomb fitting basis             ... NOT available
Auxiliary J/K fitting basis                 ... NOT available
Auxiliary Correlation fitting basis         ... NOT available
Auxiliary 'external' fitting basis          ... NOT available

Checking pre-screening integrals            ... done (  0.0 sec) Dimension = 7
Check shell pair data                       ... done (  0.0 sec)
Shell pair information
Shell pair cut-off parameter TPreSel        ...   1.0e-11
Total number of shell pairs                 ...        28
Shell pairs after pre-screening             ...        28
Total number of primitive shell pairs       ...       252
Primitive shell pairs kept                  ...       242
          la=0 lb=0:     21 shell pairs
          la=1 lb=0:      6 shell pairs
          la=1 lb=1:      1 shell pairs

Calculating one electron integrals          ... done (  0.0 sec)
Calculating Nuclear repulsion               ... done (  0.0 sec) ENN=     11.149466361799 Eh

Diagonalization of the overlap matrix:
Smallest eigenvalue                        ... 2.449e-01
Time for diagonalization                   ...    0.000 sec
Threshold for overlap eigenvalues          ... 1.000e-07
Number of eigenvalues below threshold      ... 0
Time for construction of square roots      ...    0.000 sec
Total time needed                          ...    0.001 sec

-------------------
DFT GRID GENERATION
-------------------

General Integration Accuracy     IntAcc      ... 4.388
Radial Grid Type                 RadialGrid  ... OptM3 with GC (2021)
Angular Grid (max. ang.)         AngularGrid ... 4 (Lebedev-302)
Angular grid pruning method      GridPruning ... 4 (adaptive)
Weight generation scheme         WeightScheme... mBecke (2022)
Basis function cutoff            BFCut       ... 1.0000e-10
Integration weight cutoff        WCut        ... 1.0000e-14
Partially contracted basis set               ... off
Rotationally invariant grid construction     ... off
Angular grids for H and He will be reduced by one unit

Total number of grid points                  ...    19355
Total number of batches                      ...      304
Average number of points per batch           ...       63
Average number of grid points per atom       ...     3871
Initializing property integral containers    ... done (  0.0 sec)

SHARK setup successfully completed in   0.1 seconds

Maximum memory used throughout the entire STARTUP-calculation: 4.9 MB


           ************************************************************
           *        Program running with 4 parallel MPI-processes     *
           *              working on a common directory               *
           ************************************************************
Occupation numbers will be reassigned to an Aufbau configuration
             **** ENERGY FILE WAS UPDATED (CH4_HF_1.en.tmp) ****
Finished Guess after   0.3 sec
Maximum memory used throughout the entire GUESS-calculation: 2.0 MB


           ************************************************************
           *        Program running with 4 parallel MPI-processes     *
           *              working on a common directory               *
           ************************************************************
----------------------------------------D-I-I-S--------------------------------------------
Iteration    Energy (Eh)           Delta-E    RMSDP     MaxDP     DIISErr   Damp  Time(sec)
-------------------------------------------------------------------------------------------
               ***  Starting incremental Fock matrix formation  ***
                              *** Initializing SOSCF ***
---------------------------------------S-O-S-C-F--------------------------------------
Iteration    Energy (Eh)           Delta-E    RMSDP     MaxDP     MaxGrad    Time(sec)
--------------------------------------------------------------------------------------
    1    -39.2882093823522922     0.00e+00  1.08e-03  2.90e-03  5.83e-04     0.0
               *** Restarting incremental Fock matrix formation ***
    2    -39.2882399449354835    -3.06e-05  8.53e-04  2.50e-03  1.31e-03     0.0
    3    -39.2882543330673286    -1.44e-05  9.68e-04  3.04e-03  7.03e-04     0.0
    4    -39.2882585922815366    -4.26e-06  6.51e-04  3.08e-03  4.80e-04     0.0
    5    -39.2882584690790395     1.23e-07  3.64e-04  1.51e-03  4.80e-04     0.0
                 **** Energy Check signals convergence ****

               *****************************************************
               *                     SUCCESS                       *
               *           SCF CONVERGED AFTER   5 CYCLES          *
               *****************************************************

             **** ENERGY FILE WAS UPDATED (CH4_HF_1.en.tmp) ****

----------------
TOTAL SCF ENERGY
----------------

Total Energy       :        -39.28825846907904 Eh           -1069.08786 eV

Components:
Nuclear Repulsion  :         11.14946636179937 Eh             303.39240 eV
Electronic Energy  :        -50.43772483087840 Eh           -1372.48027 eV
One Electron Energy:        -74.62144523022585 Eh           -2030.55276 eV
Two Electron Energy:         24.18372039934744 Eh             658.07249 eV

Virial components:
Potential Energy   :        -78.98914245035164 Eh           -2149.40384 eV
Kinetic Energy     :         39.70088398127260 Eh            1080.31598 eV
Virial Ratio       :          1.98960664169624

---------------
SCF CONVERGENCE
---------------

  Last Energy change         ...   -1.2320e-07  Tolerance :   1.0000e-06
  Last MAX-Density change    ...    1.5117e-03  Tolerance :   1.0000e-05
  Last RMS-Density change    ...    3.6377e-04  Tolerance :   1.0000e-06
  Last DIIS Error            ...    2.8113e-03  Tolerance :   1.0000e-06
  Last Orbital Gradient      ...    4.7971e-04  Tolerance :   5.0000e-05
  Last Orbital Rotation      ...    7.3692e-04  Tolerance :   5.0000e-05


Total SCF time: 0 days 0 hours 0 min 0 sec 
Finished LeanSCF after   0.4 sec

Maximum memory used throughout the entire LEANSCF-calculation: 4.7 MB

-------------------------   --------------------
FINAL SINGLE POINT ENERGY       -39.288258469079
-------------------------   --------------------

Storing actual gbw-file in CH4_HF_1.016.gbw ... done


           ************************************************************
           *        Program running with 4 parallel MPI-processes     *
           *              working on a common directory               *
           ************************************************************

------------------------------------------------------------------------------
                              ORCA PROPERTY CALCULATIONS
------------------------------------------------------------------------------

GBWName                                 ... CH4_HF_1.gbw
Number of atoms                         ...      5
Number of basis functions               ...      9
Max core memory                         ...   1024 MB

Electric properties:
Dipole moment                           ... YES
Quadrupole moment                       ...  NO
Static polarizability (Dipole/Dipole)   ...  NO
Static polarizability (Dipole/Quad.)    ...  NO
Static polarizability (Quad./Quad.)     ...  NO
Static polarizability (Velocity)        ...  NO

Atomic electric properties:
Dipole moment                           ...  NO
Quadrupole moment                       ...  NO
Static polarizability                   ...  NO

Choice of electric origin               ... Center of mass
Position of electric origin             ...    -0.058854     0.074778     0.268101

General magnetic properties:
Magnetizability                         ...  NO

EPR properties:
g-Tensor (aka g-matrix)                 ...  NO
Zero-Field splitting spin-orbit         ...  NO
Zero-field splitting spin-spin          ...  NO
Hyperfine couplings                     ...  NO (   0 nuclei)
Quadrupole couplings                    ...  NO (   0 nuclei)
Contact density                         ...  NO (   0 nuclei)

NMR properties:
Chemical shifts                         ...  NO (   0 nuclei)
Spin-rotation constants                 ...  NO (   0 nuclei)
Spin-spin couplings                     ...  NO (   0 nuclei,    0 pairs)

Choice of magnetic origin               ... GIAO
Position of magnetic origin             ...     0.000000     0.000000     0.000000

Properties with geometric perturbations:
SCF Hessian                             ...  NO
IR spectrum                             ...  NO
VCD spectrum                            ...  NO
X-ray spectroscopy properties:
SCF XES/XAS/RIXS spectra                ...  NO


-------------
DIPOLE MOMENT
-------------

Method             : SCF
Type of density    : Electron Density
Multiplicity       :   1
Irrep              :   0
Energy             :   -39.2882584690790395 Eh
Relativity type    : 
Basis              : AO
                                X                 Y                 Z
Electronic contribution:      0.273827562      -0.333932948      -1.984253529
Nuclear contribution   :     -0.348161900       0.442360076       1.585997906
                        -----------------------------------------
Total Dipole Moment    :     -0.074334338       0.108427128      -0.398255623
                        -----------------------------------------
Magnitude (a.u.)       :      0.419391913
Magnitude (Debye)      :      1.066009526



--------------------
Rotational spectrum 
--------------------
 
Rotational constants in cm-1:             6.764791             1.573646             1.475244 
Rotational constants in MHz :        202803.319113         47176.711548         44226.700315 

Dipole components along the rotational axes: 
x,y,z [a.u.] :    -0.390539    -0.008647    -0.152624 
x,y,z [Debye]:    -0.992671    -0.021978    -0.387940 

 

Dipole moment calculation done in   0.0 sec 

Maximum memory used throughout the entire PROP-calculation: 2.0 MB
                              **** TRAJECTORY DONE ***

                         SUMMARY OF THE CALCULATED SURFACE

------------------
TRAJECTORY RESULTS
------------------

Column   1: R

The Calculated Surface using the 'Actual Energy'
   0.50000000 -38.59075348
   0.66666667 -39.27666606
   0.83333333 -39.53261736
   1.00000000 -39.61330956
   1.16666667 -39.61993461
   1.33333333 -39.59458328
   1.50000000 -39.55617520
   1.66666667 -39.51385760
   1.83333333 -39.47218601
   2.00000000 -39.43348267
   2.16666667 -39.39887686
   2.33333333 -39.36875058
   2.50000000 -39.34301240
   2.66666667 -39.32131672
   2.83333333 -39.30322030
   3.00000000 -39.28825847

The Calculated Surface using the SCF energy
   0.50000000 -38.59075348
   0.66666667 -39.27666606
   0.83333333 -39.53261736
   1.00000000 -39.61330956
   1.16666667 -39.61993461
   1.33333333 -39.59458328
   1.50000000 -39.55617520
   1.66666667 -39.51385760
   1.83333333 -39.47218601
   2.00000000 -39.43348267
   2.16666667 -39.39887686
   2.33333333 -39.36875058
   2.50000000 -39.34301240
   2.66666667 -39.32131672
   2.83333333 -39.30322030
   3.00000000 -39.28825847


--------------------------------
SUGGESTED CITATIONS FOR THIS RUN
--------------------------------

Below you find a list of papers that are relevant to this ORCA run
We neither can nor want to force you to cite these papers, but we appreciate if you do
You receive ORCA, which is the product of decades of hard work by many enthusiastic individuals, for free
The only thing we kindly ask in return is that you cite our papers,
We deeply appreciate it, if you show your appreciation for ORCA by not just citing the generic ORCA reference.

Please note that relegating all ORCA citations to the supporting information does *not* help us.
SI sections are not indexed - citations you put there will not count into any citation statistics
But we need these citations in order to attract the funding resources that allow us to do what we are doing

Therefore, if you are a happy ORCA user, please consider citing a few of the papers listed below in the main body of your paper

In addition to the list printed below, the program has created the file CH4_HF_1.bibtex that contains the list in bibtex format
You can import this file easily into all common literature databanks and citation aid programs


List of essential papers. We consider these as the minimum necessary citations

  1. Neese,F.
     Software update: the ORCA program system, version 5.0
     WIRES Comput. Molec. Sci., 2022 12(1)e1606
     doi.org/10.1002/wcms.1606

List of papers to cite with high priority. The work reported in these papers was absolutely
necessary for this run to complete.
Our perspective: the developers of density functionals and basis sets usually get cited in chemistry papers
Good! But without the algorithms to do something with them, the functionals or basis sets would not do anything.
Hence, in our opinion, the algorithm design and method developments papers are equally worthy of getting cited

  1. Neese,F.
     The SHARK Integral Generation and Digestion System
     J. Comp. Chem., 2022  1-16
     doi.org/10.1002/jcc.26942

List of suggested additional citations. These are papers that are important in the 'surrounding' of 
of this run, or papers that preceded the highly important papers. If you like your results we are grateful for a citation.

  1. Neese,F.
     The ORCA program system
     WIRES Comput. Molec. Sci., 2012 2(1)73-78
     doi.org/10.1002/wcms.81
  2. Neese,F.
     Software update: the ORCA program system, version 4.0
     WIRES Comput. Molec. Sci., 2018 8(1)1-6
     doi.org/10.1002/wcms.1327
  3. Neese,F.; Wennmohs,F.; Becker,U.; Riplinger,C.
     The ORCA quantum chemistry program package
     J. Chem. Phys., 2020 152 Art. No. L224108
     doi.org/10.1063/5.0004608

List of optional additional citations

  1. Neese,F.
     Approximate second-order SCF convergence for spin unrestricted wavefunctions
     Chem. Phys. Lett., 2000 325(1-3)93-98
     doi.org/10.1016/s0009-2614(00)00662-x

Timings for individual modules:

Sum of individual times          ...       41.757 sec (=   0.696 min)
Startup calculation              ...       11.142 sec (=   0.186 min)  26.7 %
SCF iterations                   ...       21.210 sec (=   0.354 min)  50.8 %
Property calculations            ...        9.404 sec (=   0.157 min)  22.5 %
                             ****ORCA TERMINATED NORMALLY****
TOTAL RUN TIME: 0 days 0 hours 0 minutes 51 seconds 902 msec
